LAMMPS data file. CGCMM style. atom_style full generated by VMD/TopoTools v1.7 on Wed Jul 05 21:11:53 EDT 2017

5000 atoms
4999 bonds
4998 angles

15 atom types
1 bond types
1 angle types

-10.802000 10.410999 xlo xhi
-10.360999 10.522000 ylo yhi
-10.552999 10.247000 zlo zhi

Masses

1 1
2 1
3 1
4 1
5 1
6 1
7 1
8 1
9 1
10 1
11 1
12 1
13 1
14 1
15 1

Atoms

1 1 3 0.0000 -6.142000e+00 -1.195000e+00  5.386000e+00 # A
2 1 3 0.0000 -6.631000e+00 -8.990000e-01  4.726000e+00 # A
3 1 3 0.0000 -7.165000e+00 -1.499000e+00  5.188000e+00 # A
4 1 3 0.0000 -7.320000e+00 -1.038000e+00  6.108000e+00 # A
5 1 3 0.0000 -7.743000e+00 -1.788000e+00  6.552000e+00 # A
6 1 3 0.0000 -8.489000e+00 -1.394000e+00  6.512000e+00 # A
7 1 2 0.0000 -8.862000e+00 -1.682000e+00  5.551000e+00 # A
8 1 3 0.0000 -8.051000e+00 -2.371000e+00  5.180000e+00 # A
9 1 4 0.0000 -7.324000e+00 -3.031000e+00  4.956000e+00 # A
10 1 3 0.0000 -6.642000e+00 -2.316000e+00  5.537000e+00 # A
11 1 3 0.0000 -6.602000e+00 -1.638000e+00  6.503000e+00 # A
12 1 3 0.0000 -6.456000e+00 -7.560000e-01  6.856000e+00 # A
13 1 3 0.0000 -5.505000e+00 -1.677000e+00  6.940000e+00 # A
14 1 3 0.0000 -4.852000e+00 -2.611000e+00  7.717000e+00 # A
15 1 3 0.0000 -5.059000e+00 -2.637000e+00  8.679000e+00 # A
16 1 3 0.0000 -4.015000e+00 -2.860000e+00  8.569000e+00 # A
17 1 3 0.0000 -3.230000e+00 -2.321000e+00  8.930000e+00 # A
18 1 4 0.0000 -2.700000e+00 -2.321000e+00  7.979000e+00 # A
19 1 3 0.0000 -2.582000e+00 -1.834000e+00  7.629000e+00 # A
20 1 3 0.0000 -1.767000e+00 -1.784000e+00  8.381000e+00 # A
21 1 3 0.0000 -1.733000e+00 -9.720000e-01  8.585000e+00 # A
22 1 3 0.0000 -2.053000e+00 -8.440000e-01  9.153000e+00 # A
23 1 3 0.0000 -2.774000e+00 -1.104000e+00  9.202000e+00 # A
24 1 3 0.0000 -3.841000e+00 -1.319000e+00  9.218000e+00 # A
25 1 3 0.0000 -4.481000e+00 -1.907000e+00  9.543000e+00 # A
26 1 3 0.0000 -4.700000e+00 -1.623000e+00  8.458000e+00 # A
27 1 3 0.0000 -3.921000e+00 -9.650000e-01  8.130000e+00 # A
28 1 2 0.0000 -3.651000e+00 -3.610000e-01  8.224000e+00 # A
29 1 3 0.0000 -3.038000e+00 -5.300000e-02  8.925000e+00 # A
30 1 3 0.0000 -4.359000e+00 -4.730000e-01  9.091000e+00 # A
31 1 3 0.0000 -4.893000e+00 -1.710000e-01  8.749000e+00 # A
32 1 3 0.0000 -5.411000e+00  2.860000e-01  8.597000e+00 # A
33 1 3 0.0000 -5.669000e+00  6.860000e-01  7.789000e+00 # A
34 1 3 0.0000 -5.753000e+00  7.140000e-01  7.282000e+00 # A
35 1 3 0.0000 -6.467000e+00  1.385000e+00  6.905000e+00 # A
36 1 3 0.0000 -7.222000e+00  2.150000e+00  6.553000e+00 # A
37 1 3 0.0000 -6.814000e+00  2.867000e+00  5.668000e+00 # A
38 1 3 0.0000 -6.469000e+00  3.814000e+00  5.549000e+00 # A
39 1 3 0.0000 -5.709000e+00  2.963000e+00  5.868000e+00 # A
40 1 3 0.0000 -5.686000e+00  2.741000e+00  5.407000e+00 # A
41 1 3 0.0000 -5.292000e+00  1.971000e+00  5.632000e+00 # A
42 1 4 0.0000 -5.718000e+00  1.999000e+00  6.350000e+00 # A
43 1 3 0.0000 -5.707000e+00  2.421000e+00  6.908000e+00 # A
44 1 3 0.0000 -5.450000e+00  1.791000e+00  7.334000e+00 # A
45 1 3 0.0000 -4.909000e+00  2.111000e+00  8.165000e+00 # A
46 1 3 0.0000 -4.624000e+00  2.594000e+00  7.764000e+00 # A
47 1 3 0.0000 -4.343000e+00  2.333000e+00  7.217000e+00 # A
48 1 3 0.0000 -4.625000e+00  2.295000e+00  6.310000e+00 # A
49 1 4 0.0000 -3.769000e+00  2.375000e+00  6.140000e+00 # A
50 1 3 0.0000 -3.408000e+00  2.453000e+00  6.404000e+00 # A
51 1 3 0.0000 -3.004000e+00  3.293000e+00  5.684000e+00 # A
52 1 3 0.0000 -2.979000e+00  3.229000e+00  5.212000e+00 # A
53 1 3 0.0000 -3.647000e+00  3.213000e+00  4.976000e+00 # A
54 1 3 0.0000 -3.350000e+00  3.377000e+00  4.130000e+00 # A
55 1 3 0.0000 -3.330000e+00  3.995000e+00  4.349000e+00 # A
56 1 3 0.0000 -2.988000e+00  4.695000e+00  4.048000e+00 # A
57 1 3 0.0000 -3.147000e+00  4.585000e+00  3.486000e+00 # A
58 1 3 0.0000 -3.529000e+00  4.087000e+00  3.386000e+00 # A
59 1 3 0.0000 -3.350000e+00  3.581000e+00  3.035000e+00 # A
60 1 3 0.0000 -3.758000e+00  3.755000e+00  2.258000e+00 # A
61 1 2 0.0000 -4.093000e+00  3.956000e+00  2.497000e+00 # A
62 1 3 0.0000 -5.111000e+00  3.795000e+00  2.678000e+00 # A
63 1 3 0.0000 -5.641000e+00  3.621000e+00  2.853000e+00 # A
64 1 3 0.0000 -4.907000e+00  3.849000e+00  3.667000e+00 # A
65 1 3 0.0000 -4.722000e+00  3.633000e+00  3.575000e+00 # A
66 1 3 0.0000 -3.776000e+00  2.622000e+00  3.585000e+00 # A
67 1 3 0.0000 -4.186000e+00  2.813000e+00  2.744000e+00 # A
68 1 3 0.0000 -4.594000e+00  2.766000e+00  2.944000e+00 # A
69 1 3 0.0000 -5.030000e+00  2.137000e+00  2.560000e+00 # A
70 1 3 0.0000 -5.667000e+00  2.054000e+00  2.138000e+00 # A
71 1 3 0.0000 -6.041000e+00  2.046000e+00  1.626000e+00 # A
72 1 3 0.0000 -6.044000e+00  3.025000e+00  2.020000e+00 # A
73 1 3 0.0000 -6.072000e+00  3.591000e+00  1.999000e+00 # A
74 1 3 0.0000 -6.907000e+00  3.320000e+00  2.677000e+00 # A
75 1 3 0.0000 -7.054000e+00  2.811000e+00  2.964000e+00 # A
76 1 3 0.0000 -7.039000e+00  2.211000e+00  2.752000e+00 # A
77 1 3 0.0000 -7.198000e+00  1.837000e+00  3.484000e+00 # A
78 1 3 0.0000 -6.799000e+00  2.490000e+00  4.017000e+00 # A
79 1 3 0.0000 -6.823000e+00  3.311000e+00  3.828000e+00 # A
80 1 3 0.0000 -6.452000e+00  3.437000e+00  4.551000e+00 # A
81 1 3 0.0000 -5.471000e+00  3.471000e+00  4.773000e+00 # A
82 1 3 0.0000 -4.954000e+00  3.434000e+00  4.620000e+00 # A
83 1 2 0.0000 -4.303000e+00  3.764000e+00  5.472000e+00 # A
84 1 3 0.0000 -4.354000e+00  3.395000e+00  5.825000e+00 # A
85 1 3 0.0000 -4.431000e+00  2.563000e+00  5.290000e+00 # A
86 1 1 0.0000 -4.362000e+00  2.504000e+00  4.415000e+00 # A
87 1 3 0.0000 -4.602000e+00  1.249000e+00  5.055000e+00 # A
88 1 3 0.0000 -4.799000e+00  1.112000e+00  5.679000e+00 # A
89 1 3 0.0000 -5.465000e+00  6.960000e-01  5.632000e+00 # A
90 1 3 0.0000 -6.242000e+00  5.400000e-01  6.136000e+00 # A
91 1 3 0.0000 -7.425000e+00  9.170000e-01  6.259000e+00 # A
92 1 3 0.0000 -7.372000e+00  1.034000e+00  5.496000e+00 # A
93 1 3 0.0000 -6.793000e+00  2.290000e-01  5.334000e+00 # A
94 1 3 0.0000 -6.701000e+00 -3.240000e-01  5.694000e+00 # A
95 1 3 0.0000 -5.652000e+00 -2.750000e-01  6.527000e+00 # A
96 1 4 0.0000 -5.565000e+00 -5.410000e-01  5.823000e+00 # A
97 1 3 0.0000 -5.577000e+00 -3.620000e-01  5.193000e+00 # A
98 1 3 0.0000 -5.484000e+00 -5.030000e-01  4.783000e+00 # A
99 1 4 0.0000 -4.495000e+00 -8.160000e-01  5.259000e+00 # A
100 1 3 0.0000 -4.472000e+00 -7.450000e-01  6.109000e+00 # A
101 1 3 0.0000 -3.990000e+00 -1.084000e+00  6.289000e+00 # A
102 1 3 0.0000 -3.554000e+00 -1.152000e+00  5.750000e+00 # A
103 1 3 0.0000 -3.446000e+00 -5.070000e-01  5.614000e+00 # A
104 1 3 0.0000 -2.739000e+00 -5.170000e-01  6.149000e+00 # A
105 1 2 0.0000 -2.831000e+00 -6.460000e-01  6.463000e+00 # A
106 1 3 0.0000 -2.076000e+00 -7.710000e-01  7.626000e+00 # A
107 1 3 0.0000 -2.662000e+00 -5.360000e-01  7.787000e+00 # A
108 1 4 0.0000 -2.637000e+00 -7.600000e-02  7.292000e+00 # A
109 1 1 0.0000 -1.821000e+00  5.490000e-01  7.008000e+00 # A
110 1 3 0.0000 -2.122000e+00  5.270000e-01  6.407000e+00 # A
111 1 3 0.0000 -2.916000e+00  1.347000e+00  6.149000e+00 # A
112 1 3 0.0000 -2.743000e+00  1.342000e+00  6.092000e+00 # A
113 1 1 0.0000 -3.412000e+00  1.712000e+00  5.338000e+00 # A
114 1 3 0.0000 -3.627000e+00  1.787000e+00  5.287000e+00 # A
115 1 3 0.0000 -2.672000e+00  2.348000e+00  5.783000e+00 # A
116 1 3 0.0000 -2.084000e+00  2.289000e+00  6.254000e+00 # A
117 1 3 0.0000 -1.559000e+00  2.394000e+00  6.591000e+00 # A
118 1 3 0.0000 -2.107000e+00  1.923000e+00  7.240000e+00 # A
119 1 3 0.0000 -2.456000e+00  1.387000e+00  7.132000e+00 # A
120 1 1 0.0000 -3.215000e+00  1.358000e+00  7.324000e+00 # A
121 1 3 0.0000 -3.291000e+00  8.420000e-01  7.853000e+00 # A
122 1 3 0.0000 -4.182000e+00  8.230000e-01  8.192000e+00 # A
123 1 3 0.0000 -4.759000e+00  2.470000e-01  7.304000e+00 # A
124 1 3 0.0000 -4.819000e+00  3.560000e-01  6.447000e+00 # A
125 1 3 0.0000 -4.625000e+00  1.244000e+00  6.820000e+00 # A
126 1 3 0.0000 -3.913000e+00  1.334000e+00  6.124000e+00 # A
127 1 3 0.0000 -3.848000e+00  9.470000e-01  6.097000e+00 # A
128 1 3 0.0000 -4.101000e+00  3.660000e-01  5.524000e+00 # A
129 1 3 0.0000 -4.323000e+00  1.460000e-01  4.735000e+00 # A
130 1 3 0.0000 -4.316000e+00  5.340000e-01  4.354000e+00 # A
131 1 3 0.0000 -5.267000e+00  4.870000e-01  4.422000e+00 # A
132 1 3 0.0000 -5.031000e+00  1.600000e+00  4.006000e+00 # A
133 1 3 0.0000 -5.359000e+00  1.741000e+00  4.468000e+00 # A
134 1 3 0.0000 -5.580000e+00  2.720000e+00  4.004000e+00 # A
135 1 3 0.0000 -5.849000e+00  2.559000e+00  3.146000e+00 # A
136 1 3 0.0000 -5.990000e+00  2.029000e+00  3.163000e+00 # A
137 1 3 0.0000 -5.969000e+00  1.460000e+00  3.432000e+00 # A
138 1 1 0.0000 -5.854000e+00  1.103000e+00  3.724000e+00 # A
139 1 3 0.0000 -6.351000e+00  1.608000e+00  4.361000e+00 # A
140 1 3 0.0000 -6.218000e+00  1.270000e+00  4.804000e+00 # A
141 1 1 0.0000 -6.270000e+00  1.804000e+00  5.569000e+00 # A
142 1 3 0.0000 -7.003000e+00  1.884000e+00  5.170000e+00 # A
143 1 3 0.0000 -7.544000e+00  1.823000e+00  4.850000e+00 # A
144 1 3 0.0000 -7.447000e+00  1.261000e+00  4.297000e+00 # A
145 1 3 0.0000 -7.120000e+00  8.190000e-01  4.071000e+00 # A
146 1 3 0.0000 -7.689000e+00  3.740000e-01  4.756000e+00 # A
147 1 3 0.0000 -7.986000e+00 -1.070000e-01  4.604000e+00 # A
148 1 3 0.0000 -8.675000e+00  8.030000e-01  4.849000e+00 # A
149 1 3 0.0000 -8.676000e+00  8.810000e-01  5.621000e+00 # A
150 1 3 0.0000 -8.121000e+00 -8.700000e-02  5.683000e+00 # A
151 1 3 0.0000 -7.342000e+00 -1.100000e-01  6.802000e+00 # A
152 1 4 0.0000 -7.256000e+00 -8.000000e-03  7.486000e+00 # A
153 1 3 0.0000 -6.675000e+00  2.600000e-02  8.156000e+00 # A
154 1 3 0.0000 -6.149000e+00 -3.330000e-01  7.637000e+00 # A
155 1 3 0.0000 -5.678000e+00 -1.101000e+00  7.805000e+00 # A
156 1 3 0.0000 -6.018000e+00 -2.025000e+00  7.916000e+00 # A
157 1 3 0.0000 -5.735000e+00 -3.073000e+00  7.745000e+00 # A
158 1 3 0.0000 -5.779000e+00 -3.483000e+00  7.009000e+00 # A
159 1 3 0.0000 -6.562000e+00 -2.561000e+00  6.952000e+00 # A
160 1 3 0.0000 -6.958000e+00 -3.071000e+00  6.097000e+00 # A
161 1 3 0.0000 -6.761000e+00 -3.573000e+00  7.362000e+00 # A
162 1 3 0.0000 -6.603000e+00 -4.016000e+00  6.601000e+00 # A
163 1 3 0.0000 -6.303000e+00 -5.011000e+00  6.604000e+00 # A
164 1 3 0.0000 -5.757000e+00 -4.307000e+00  6.106000e+00 # A
165 1 4 0.0000 -5.627000e+00 -5.112000e+00  5.396000e+00 # A
166 1 3 0.0000 -6.157000e+00 -4.869000e+00  5.209000e+00 # A
167 1 3 0.0000 -6.713000e+00 -4.779000e+00  5.686000e+00 # A
168 1 3 0.0000 -7.645000e+00 -4.444000e+00  5.178000e+00 # A
169 1 3 0.0000 -7.542000e+00 -4.054000e+00  4.494000e+00 # A
170 1 4 0.0000 -6.975000e+00 -4.848000e+00  4.414000e+00 # A
171 1 3 0.0000 -6.846000e+00 -3.697000e+00  3.929000e+00 # A
172 1 3 0.0000 -6.549000e+00 -3.515000e+00  4.399000e+00 # A
173 1 3 0.0000 -6.807000e+00 -2.380000e+00  4.327000e+00 # A
174 1 3 0.0000 -7.382000e+00 -2.295000e+00  4.209000e+00 # A
175 1 3 0.0000 -7.803000e+00 -2.119000e+00  4.101000e+00 # A
176 1 3 0.0000 -7.865000e+00 -1.415000e+00  4.442000e+00 # A
177 1 3 0.0000 -7.764000e+00 -9.580000e-01  4.060000e+00 # A
178 1 3 0.0000 -7.243000e+00 -3.830000e-01  3.812000e+00 # A
179 1 3 0.0000 -6.514000e+00 -5.500000e-01  3.126000e+00 # A
180 1 3 0.0000 -6.433000e+00 -7.540000e-01  2.886000e+00 # A
181 1 4 0.0000 -6.701000e+00 -1.298000e+00  3.784000e+00 # A
182 1 3 0.0000 -6.345000e+00 -1.528000e+00  3.925000e+00 # A
183 1 3 0.0000 -5.899000e+00 -1.802000e+00  4.409000e+00 # A
184 1 3 0.0000 -5.497000e+00 -2.385000e+00  5.012000e+00 # A
185 1 3 0.0000 -5.198000e+00 -1.704000e+00  5.974000e+00 # A
186 1 3 0.0000 -5.837000e+00 -2.689000e+00  6.207000e+00 # A
187 1 3 0.0000 -5.097000e+00 -2.749000e+00  6.424000e+00 # A
188 1 3 0.0000 -4.956000e+00 -2.954000e+00  5.808000e+00 # A
189 1 3 0.0000 -4.486000e+00 -3.033000e+00  5.020000e+00 # A
190 1 3 0.0000 -3.889000e+00 -3.767000e+00  5.547000e+00 # A
191 1 3 0.0000 -3.615000e+00 -4.111000e+00  6.195000e+00 # A
192 1 1 0.0000 -2.874000e+00 -3.623000e+00  6.093000e+00 # A
193 1 3 0.0000 -3.402000e+00 -2.720000e+00  5.548000e+00 # A
194 1 1 0.0000 -3.685000e+00 -2.557000e+00  5.993000e+00 # A
195 1 3 0.0000 -4.142000e+00 -1.977000e+00  5.653000e+00 # A
196 1 3 0.0000 -4.457000e+00 -1.904000e+00  5.394000e+00 # A
197 1 3 0.0000 -4.058000e+00 -1.758000e+00  4.654000e+00 # A
198 1 3 0.0000 -4.014000e+00 -2.130000e+00  4.422000e+00 # A
199 1 3 0.0000 -4.968000e+00 -1.533000e+00  4.290000e+00 # A
200 1 3 0.0000 -4.220000e+00 -9.960000e-01  4.083000e+00 # A
201 1 3 0.0000 -4.058000e+00 -1.216000e+00  3.741000e+00 # A
202 1 3 0.0000 -3.628000e+00 -3.050000e-01  3.569000e+00 # A
203 1 3 0.0000 -3.805000e+00 -2.460000e-01  3.466000e+00 # A
204 1 3 0.0000 -4.517000e+00  1.900000e-02  2.832000e+00 # A
205 1 1 0.0000 -4.367000e+00 -3.070000e-01  2.410000e+00 # A
206 1 2 0.0000 -3.957000e+00 -8.370000e-01  2.285000e+00 # A
207 1 3 0.0000 -3.310000e+00 -9.910000e-01  2.861000e+00 # A
208 1 3 0.0000 -2.983000e+00 -1.149000e+00  2.668000e+00 # A
209 1 3 0.0000 -2.177000e+00 -1.245000e+00  2.768000e+00 # A
210 1 3 0.0000 -1.441000e+00 -1.115000e+00  2.883000e+00 # A
211 1 3 0.0000 -1.309000e+00 -7.580000e-01  3.266000e+00 # A
212 1 2 0.0000 -1.502000e+00 -1.270000e-01  3.331000e+00 # A
213 1 3 0.0000 -2.112000e+00 -4.730000e-01  4.295000e+00 # A
214 1 3 0.0000 -2.044000e+00 -1.143000e+00  4.223000e+00 # A
215 1 3 0.0000 -2.103000e+00 -1.699000e+00  3.656000e+00 # A
216 1 3 0.0000 -1.962000e+00 -1.933000e+00  3.606000e+00 # A
217 1 3 0.0000 -9.090000e-01 -1.384000e+00  4.041000e+00 # A
218 1 3 0.0000 -8.830000e-01 -1.070000e+00  4.397000e+00 # A
219 1 3 0.0000 -1.087000e+00 -5.380000e-01  4.661000e+00 # A
220 1 3 0.0000 -1.093000e+00  1.600000e-02  4.280000e+00 # A
221 1 3 0.0000 -5.170000e-01 -2.280000e-01  3.656000e+00 # A
222 1 3 0.0000 -4.150000e-01 -3.570000e-01  3.564000e+00 # A
223 1 3 0.0000 -8.740000e-01  7.080000e-01  3.647000e+00 # A
224 1 3 0.0000 -5.660000e-01  1.093000e+00  3.863000e+00 # A
225 1 3 0.0000 -1.442000e+00  1.291000e+00  4.181000e+00 # A
226 1 3 0.0000 -1.219000e+00  1.878000e+00  4.522000e+00 # A
227 1 3 0.0000 -9.260000e-01  2.149000e+00  4.574000e+00 # A
228 1 3 0.0000 -2.100000e-02  2.255000e+00  5.065000e+00 # A
229 1 3 0.0000  5.810000e-01  2.127000e+00  5.253000e+00 # A
230 1 3 0.0000  7.850000e-01  1.934000e+00  5.714000e+00 # A
231 1 3 0.0000  7.470000e-01  1.085000e+00  5.063000e+00 # A
232 1 3 0.0000  2.920000e-01  1.047000e+00  4.956000e+00 # A
233 1 3 0.0000 -2.990000e-01  1.277000e+00  4.904000e+00 # A
234 1 3 0.0000 -7.510000e-01  9.960000e-01  4.939000e+00 # A
235 1 3 0.0000 -1.198000e+00  9.050000e-01  5.227000e+00 # A
236 1 3 0.0000 -1.818000e+00  6.850000e-01  4.949000e+00 # A
237 1 3 0.0000 -2.528000e+00  1.102000e+00  4.838000e+00 # A
238 1 3 0.0000 -2.553000e+00  1.352000e+00  5.060000e+00 # A
239 1 3 0.0000 -1.846000e+00  1.722000e+00  5.315000e+00 # A
240 1 3 0.0000 -1.689000e+00  1.388000e+00  5.909000e+00 # A
241 1 3 0.0000 -1.470000e+00  1.406000e+00  6.295000e+00 # A
242 1 3 0.0000 -1.160000e+00  1.371000e+00  6.921000e+00 # A
243 1 3 0.0000 -8.040000e-01  1.260000e+00  7.063000e+00 # A
244 1 3 0.0000 -2.100000e-01  7.460000e-01  6.764000e+00 # A
245 1 3 0.0000  3.580000e-01  8.690000e-01  6.038000e+00 # A
246 1 3 0.0000 -9.000000e-02  1.548000e+00  6.065000e+00 # A
247 1 3 0.0000 -4.250000e-01  1.595000e+00  5.858000e+00 # A
248 1 3 0.0000 -9.340000e-01  2.191000e+00  5.635000e+00 # A
249 1 3 0.0000 -9.740000e-01  2.961000e+00  5.851000e+00 # A
250 1 3 0.0000 -5.120000e-01  3.443000e+00  5.939000e+00 # A
251 1 3 0.0000 -1.155000e+00  3.318000e+00  6.804000e+00 # A
252 1 3 0.0000 -1.581000e+00  3.308000e+00  7.124000e+00 # A
253 1 3 0.0000 -1.879000e+00  3.383000e+00  6.162000e+00 # A
254 1 3 0.0000 -1.984000e+00  3.404000e+00  5.701000e+00 # A
255 1 3 0.0000 -1.785000e+00  2.686000e+00  5.191000e+00 # A
256 1 3 0.0000 -2.210000e+00  2.533000e+00  4.745000e+00 # A
257 1 3 0.0000 -2.462000e+00  2.730000e+00  4.448000e+00 # A
258 1 3 0.0000 -3.179000e+00  2.446000e+00  4.523000e+00 # A
259 1 3 0.0000 -3.564000e+00  1.863000e+00  4.215000e+00 # A
260 1 3 0.0000 -3.788000e+00  1.635000e+00  4.224000e+00 # A
261 1 3 0.0000 -3.457000e+00  8.150000e-01  4.639000e+00 # A
262 1 4 0.0000 -3.281000e+00  2.390000e-01  4.480000e+00 # A
263 1 3 0.0000 -3.010000e+00 -4.600000e-02  4.482000e+00 # A
264 1 3 0.0000 -2.575000e+00  9.300000e-02  5.301000e+00 # A
265 1 3 0.0000 -3.047000e+00  4.730000e-01  5.615000e+00 # A
266 1 3 0.0000 -3.250000e+00  4.100000e-01  6.620000e+00 # A
267 1 3 0.0000 -3.767000e+00  6.700000e-02  6.564000e+00 # A
268 1 3 0.0000 -3.910000e+00 -4.120000e-01  7.189000e+00 # A
269 1 3 0.0000 -4.571000e+00 -1.367000e+00  7.102000e+00 # A
270 1 3 0.0000 -3.880000e+00 -1.951000e+00  7.407000e+00 # A
271 1 3 0.0000 -3.373000e+00 -1.603000e+00  7.134000e+00 # A
272 1 3 0.0000 -3.306000e+00 -2.718000e+00  7.009000e+00 # A
273 1 3 0.0000 -4.124000e+00 -3.326000e+00  6.834000e+00 # A
274 1 3 0.0000 -3.822000e+00 -3.592000e+00  7.353000e+00 # A
275 1 3 0.0000 -4.211000e+00 -4.250000e+00  7.849000e+00 # A
276 1 3 0.0000 -4.843000e+00 -3.999000e+00  6.809000e+00 # A
277 1 3 0.0000 -4.656000e+00 -4.193000e+00  6.092000e+00 # A
278 1 3 0.0000 -4.594000e+00 -4.666000e+00  5.415000e+00 # A
279 1 3 0.0000 -4.838000e+00 -4.036000e+00  5.097000e+00 # A
280 1 3 0.0000 -5.703000e+00 -3.660000e+00  4.889000e+00 # A
281 1 3 0.0000 -5.284000e+00 -3.315000e+00  4.438000e+00 # A
282 1 3 0.0000 -5.074000e+00 -2.767000e+00  4.152000e+00 # A
283 1 3 0.0000 -5.358000e+00 -2.338000e+00  3.631000e+00 # A
284 1 3 0.0000 -5.918000e+00 -2.963000e+00  3.627000e+00 # A
285 1 3 0.0000 -6.013000e+00 -3.304000e+00  3.123000e+00 # A
286 1 3 0.0000 -6.010000e+00 -3.956000e+00  3.481000e+00 # A
287 1 3 0.0000 -6.417000e+00 -3.938000e+00  2.331000e+00 # A
288 1 3 0.0000 -5.524000e+00 -4.116000e+00  2.435000e+00 # A
289 1 3 0.0000 -5.499000e+00 -3.750000e+00  2.083000e+00 # A
290 1 3 0.0000 -5.722000e+00 -3.122000e+00  2.239000e+00 # A
291 1 3 0.0000 -5.806000e+00 -2.739000e+00  1.979000e+00 # A
292 1 3 0.0000 -5.186000e+00 -2.258000e+00  2.486000e+00 # A
293 1 3 0.0000 -4.815000e+00 -2.410000e+00  2.216000e+00 # A
294 1 3 0.0000 -4.530000e+00 -3.015000e+00  2.021000e+00 # A
295 1 3 0.0000 -4.502000e+00 -3.446000e+00  2.090000e+00 # A
296 1 3 0.0000 -4.349000e+00 -3.992000e+00  2.401000e+00 # A
297 1 3 0.0000 -3.957000e+00 -4.051000e+00  3.002000e+00 # A
298 1 3 0.0000 -3.768000e+00 -3.802000e+00  3.367000e+00 # A
299 1 3 0.0000 -4.013000e+00 -3.219000e+00  3.748000e+00 # A
300 1 3 0.0000 -3.472000e+00 -3.056000e+00  4.224000e+00 # A
301 1 3 0.0000 -3.925000e+00 -3.821000e+00  4.537000e+00 # A
302 1 3 0.0000 -4.405000e+00 -4.510000e+00  4.110000e+00 # A
303 1 3 0.0000 -5.176000e+00 -4.903000e+00  4.520000e+00 # A
304 1 3 0.0000 -5.932000e+00 -4.868000e+00  4.176000e+00 # A
305 1 4 0.0000 -6.613000e+00 -5.085000e+00  3.340000e+00 # A
306 1 3 0.0000 -6.107000e+00 -4.952000e+00  2.973000e+00 # A
307 1 3 0.0000 -5.644000e+00 -5.226000e+00  2.673000e+00 # A
308 1 3 0.0000 -5.245000e+00 -5.953000e+00  2.785000e+00 # A
309 1 4 0.0000 -4.702000e+00 -6.080000e+00  2.708000e+00 # A
310 1 3 0.0000 -4.022000e+00 -6.348000e+00  2.371000e+00 # A
311 1 3 0.0000 -4.161000e+00 -7.288000e+00  3.147000e+00 # A
312 1 4 0.0000 -4.644000e+00 -7.441000e+00  3.335000e+00 # A
313 1 3 0.0000 -4.759000e+00 -8.173000e+00  3.576000e+00 # A
314 1 3 0.0000 -4.638000e+00 -8.994000e+00  2.920000e+00 # A
315 1 3 0.0000 -3.983000e+00 -8.249000e+00  2.772000e+00 # A
316 1 3 0.0000 -2.858000e+00 -8.135000e+00  2.786000e+00 # A
317 1 1 0.0000 -3.135000e+00 -7.251000e+00  2.789000e+00 # A
318 1 3 0.0000 -3.589000e+00 -7.299000e+00  2.131000e+00 # A
319 1 3 0.0000 -3.143000e+00 -7.629000e+00  1.676000e+00 # A
320 1 4 0.0000 -2.820000e+00 -7.453000e+00  9.780000e-01 # A
321 1 3 0.0000 -3.455000e+00 -7.626000e+00  5.040000e-01 # A
322 1 3 0.0000 -4.123000e+00 -8.176000e+00  1.036000e+00 # A
323 1 3 0.0000 -4.744000e+00 -8.091000e+00  3.200000e-01 # A
324 1 3 0.0000 -5.500000e+00 -7.492000e+00  3.000000e-03 # A
325 1 3 0.0000 -5.916000e+00 -7.920000e+00 -9.050000e-01 # A
326 1 3 0.0000 -6.438000e+00 -8.350000e+00 -4.150000e-01 # A
327 1 3 0.0000 -5.337000e+00 -8.861000e+00 -5.200000e-01 # A
328 1 3 0.0000 -4.707000e+00 -8.925000e+00 -1.661000e+00 # A
329 1 3 0.0000 -3.884000e+00 -8.503000e+00 -1.870000e+00 # A
330 1 3 0.0000 -3.668000e+00 -8.120000e+00 -2.980000e+00 # A
331 1 3 0.0000 -3.413000e+00 -7.070000e+00 -3.367000e+00 # A
332 1 3 0.0000 -3.153000e+00 -6.942000e+00 -2.866000e+00 # A
333 1 2 0.0000 -3.047000e+00 -7.116000e+00 -2.234000e+00 # A
334 1 3 0.0000 -3.352000e+00 -7.196000e+00 -1.744000e+00 # A
335 1 3 0.0000 -3.540000e+00 -6.684000e+00 -1.159000e+00 # A
336 1 3 0.0000 -3.698000e+00 -7.512000e+00 -5.980000e-01 # A
337 1 3 0.0000 -3.831000e+00 -8.005000e+00 -8.960000e-01 # A
338 1 3 0.0000 -2.682000e+00 -8.185000e+00 -8.540000e-01 # A
339 1 3 0.0000 -2.454000e+00 -7.712000e+00 -1.330000e-01 # A
340 1 4 0.0000 -2.751000e+00 -7.328000e+00 -2.290000e-01 # A
341 1 3 0.0000 -2.518000e+00 -6.412000e+00 -4.180000e-01 # A
342 1 3 0.0000 -2.616000e+00 -6.193000e+00 -1.860000e-01 # A
343 1 3 0.0000 -2.302000e+00 -5.856000e+00  4.930000e-01 # A
344 1 3 0.0000 -2.273000e+00 -6.060000e+00  9.660000e-01 # A
345 1 3 0.0000 -2.048000e+00 -5.444000e+00  1.460000e+00 # A
346 1 3 0.0000 -2.290000e+00 -5.448000e+00  2.034000e+00 # A
347 1 3 0.0000 -2.190000e+00 -5.454000e+00  2.710000e+00 # A
348 1 3 0.0000 -2.180000e+00 -5.326000e+00  3.276000e+00 # A
349 1 3 0.0000 -2.842000e+00 -4.599000e+00  3.064000e+00 # A
350 1 3 0.0000 -3.253000e+00 -4.801000e+00  3.221000e+00 # A
351 1 3 0.0000 -4.195000e+00 -5.075000e+00  3.145000e+00 # A
352 1 3 0.0000 -4.915000e+00 -5.145000e+00  3.536000e+00 # A
353 1 3 0.0000 -5.090000e+00 -4.329000e+00  3.224000e+00 # A
354 1 3 0.0000 -4.917000e+00 -3.716000e+00  3.158000e+00 # A
355 1 3 0.0000 -4.972000e+00 -3.207000e+00  3.058000e+00 # A
356 1 3 0.0000 -3.877000e+00 -2.805000e+00  2.850000e+00 # A
357 1 3 0.0000 -4.296000e+00 -2.315000e+00  3.293000e+00 # A
358 1 3 0.0000 -4.199000e+00 -1.810000e+00  2.944000e+00 # A
359 1 3 0.0000 -3.704000e+00 -1.873000e+00  2.376000e+00 # A
360 1 2 0.0000 -3.720000e+00 -2.299000e+00  1.944000e+00 # A
361 1 3 0.0000 -3.774000e+00 -2.636000e+00  1.362000e+00 # A
362 1 3 0.0000 -3.724000e+00 -3.017000e+00  1.083000e+00 # A
363 1 3 0.0000 -3.391000e+00 -3.386000e+00  1.991000e+00 # A
364 1 1 0.0000 -2.976000e+00 -3.301000e+00  2.659000e+00 # A
365 1 3 0.0000 -2.643000e+00 -3.659000e+00  2.872000e+00 # A
366 1 3 0.0000 -2.666000e+00 -2.943000e+00  3.677000e+00 # A
367 1 3 0.0000 -2.348000e+00 -2.880000e+00  3.656000e+00 # A
368 1 3 0.0000 -1.717000e+00 -3.328000e+00  2.970000e+00 # A
369 1 3 0.0000 -1.372000e+00 -2.896000e+00  3.097000e+00 # A
370 1 3 0.0000 -1.195000e+00 -2.452000e+00  3.284000e+00 # A
371 1 3 0.0000 -5.070000e-01 -2.057000e+00  3.280000e+00 # A
372 1 3 0.0000 -2.990000e-01 -2.340000e+00  2.912000e+00 # A
373 1 2 0.0000 -5.210000e-01 -2.661000e+00  2.436000e+00 # A
374 1 3 0.0000 -8.450000e-01 -2.976000e+00  2.247000e+00 # A
375 1 3 0.0000 -1.828000e+00 -3.224000e+00  1.903000e+00 # A
376 1 3 0.0000 -2.256000e+00 -3.097000e+00  1.985000e+00 # A
377 1 3 0.0000 -2.620000e+00 -2.666000e+00  1.358000e+00 # A
378 1 3 0.0000 -2.710000e+00 -2.177000e+00  1.667000e+00 # A
379 1 3 0.0000 -2.967000e+00 -1.697000e+00  1.477000e+00 # A
380 1 3 0.0000 -3.403000e+00 -1.058000e+00  1.373000e+00 # A
381 1 2 0.0000 -2.957000e+00 -7.120000e-01  1.666000e+00 # A
382 1 3 0.0000 -2.854000e+00 -1.130000e-01  1.535000e+00 # A
383 1 3 0.0000 -3.675000e+00 -1.800000e-02  1.350000e+00 # A
384 1 3 0.0000 -4.014000e+00 -2.170000e-01  1.224000e+00 # A
385 1 4 0.0000 -4.602000e+00 -4.720000e-01  1.095000e+00 # A
386 1 3 0.0000 -4.968000e+00 -6.660000e-01  1.111000e+00 # A
387 1 3 0.0000 -5.457000e+00 -1.370000e+00  6.690000e-01 # A
388 1 3 0.0000 -5.652000e+00 -1.230000e+00  5.600000e-01 # A
389 1 3 0.0000 -5.380000e+00 -5.760000e-01 -4.100000e-02 # A
390 1 3 0.0000 -5.016000e+00 -3.690000e-01 -1.510000e-01 # A
391 1 3 0.0000 -4.400000e+00 -6.800000e-02  8.000000e-03 # A
392 1 3 0.0000 -4.046000e+00  3.330000e-01  2.840000e-01 # A
393 1 3 0.0000 -3.738000e+00  7.590000e-01  4.720000e-01 # A
394 1 3 0.0000 -3.378000e+00  9.000000e-01  1.077000e+00 # A
395 1 3 0.0000 -3.003000e+00  1.056000e+00  1.540000e+00 # A
396 1 3 0.0000 -2.873000e+00  9.000000e-01  2.009000e+00 # A
397 1 3 0.0000 -2.992000e+00  6.130000e-01  2.572000e+00 # A
398 1 4 0.0000 -3.417000e+00 -5.300000e-02  2.531000e+00 # A
399 1 3 0.0000 -4.338000e+00  9.180000e-01  2.342000e+00 # A
400 1 3 0.0000 -4.018000e+00  8.090000e-01  2.302000e+00 # A
401 1 3 0.0000 -3.826000e+00  1.565000e+00  1.749000e+00 # A
402 1 3 0.0000 -3.991000e+00  1.855000e+00  1.574000e+00 # A
403 1 3 0.0000 -4.920000e+00  2.003000e+00  1.229000e+00 # A
404 1 3 0.0000 -5.053000e+00  1.547000e+00  1.187000e+00 # A
405 1 3 0.0000 -5.517000e+00  1.141000e+00  1.218000e+00 # A
406 1 1 0.0000 -5.940000e+00  9.470000e-01  9.290000e-01 # A
407 1 3 0.0000 -5.465000e+00  2.320000e-01  6.390000e-01 # A
408 1 3 0.0000 -5.013000e+00  3.780000e-01  6.660000e-01 # A
409 1 3 0.0000 -4.422000e+00  8.610000e-01  1.270000e+00 # A
410 1 3 0.0000 -5.114000e+00  2.220000e-01  1.715000e+00 # A
411 1 3 0.0000 -5.903000e+00  6.100000e-02  1.834000e+00 # A
412 1 3 0.0000 -5.865000e+00 -4.970000e-01  1.850000e+00 # A
413 1 3 0.0000 -6.362000e+00 -7.570000e-01  1.443000e+00 # A
414 1 3 0.0000 -7.196000e+00 -9.400000e-01  1.459000e+00 # A
415 1 3 0.0000 -8.197000e+00 -1.411000e+00  1.280000e+00 # A
416 1 3 0.0000 -8.829000e+00 -1.667000e+00  1.007000e+00 # A
417 1 3 0.0000 -7.811000e+00 -2.300000e+00  7.720000e-01 # A
418 1 3 0.0000 -7.392000e+00 -2.970000e+00  9.640000e-01 # A
419 1 3 0.0000 -7.262000e+00 -2.004000e+00  1.596000e+00 # A
420 1 3 0.0000 -7.152000e+00 -2.367000e+00  2.193000e+00 # A
421 1 3 0.0000 -6.634000e+00 -2.635000e+00  2.527000e+00 # A
422 1 4 0.0000 -6.116000e+00 -2.140000e+00  3.006000e+00 # A
423 1 3 0.0000 -6.262000e+00 -1.528000e+00  2.147000e+00 # A
424 1 3 0.0000 -5.720000e+00 -1.514000e+00  1.796000e+00 # A
425 1 3 0.0000 -5.275000e+00 -1.467000e+00  1.721000e+00 # A
426 1 3 0.0000 -4.701000e+00 -1.362000e+00  1.769000e+00 # A
427 1 3 0.0000 -4.324000e+00 -1.557000e+00  1.510000e+00 # A
428 1 3 0.0000 -4.941000e+00 -2.232000e+00  1.180000e+00 # A
429 1 3 0.0000 -5.028000e+00 -2.808000e+00  1.204000e+00 # A
430 1 3 0.0000 -4.708000e+00 -3.653000e+00  1.052000e+00 # A
431 1 3 0.0000 -3.974000e+00 -3.968000e+00  1.327000e+00 # A
432 1 3 0.0000 -4.089000e+00 -4.420000e+00  1.224000e+00 # A
433 1 3 0.0000 -3.349000e+00 -4.932000e+00  2.179000e+00 # A
434 1 3 0.0000 -3.299000e+00 -4.391000e+00  1.993000e+00 # A
435 1 3 0.0000 -2.984000e+00 -3.933000e+00  1.073000e+00 # A
436 1 3 0.0000 -2.765000e+00 -3.581000e+00  1.079000e+00 # A
437 1 3 0.0000 -1.943000e+00 -3.107000e+00  7.770000e-01 # A
438 1 3 0.0000 -1.908000e+00 -3.191000e+00  4.830000e-01 # A
439 1 2 0.0000 -1.737000e+00 -4.145000e+00  2.200000e-01 # A
440 1 3 0.0000 -1.698000e+00 -4.356000e+00  7.950000e-01 # A
441 1 3 0.0000 -2.013000e+00 -4.384000e+00  1.142000e+00 # A
442 1 3 0.0000 -2.294000e+00 -4.248000e+00  1.725000e+00 # A
443 1 3 0.0000 -2.291000e+00 -4.210000e+00  2.095000e+00 # A
444 1 3 0.0000 -1.811000e+00 -4.435000e+00  2.704000e+00 # A
445 1 3 0.0000 -1.184000e+00 -4.051000e+00  2.507000e+00 # A
446 1 3 0.0000 -1.181000e+00 -4.156000e+00  2.049000e+00 # A
447 1 3 0.0000 -1.030000e+00 -3.796000e+00  1.554000e+00 # A
448 1 3 0.0000 -9.230000e-01 -3.665000e+00  1.016000e+00 # A
449 1 3 0.0000 -9.050000e-01 -3.203000e+00  6.820000e-01 # A
450 1 3 0.0000 -1.049000e+00 -2.542000e+00  1.040000e+00 # A
451 1 3 0.0000 -1.492000e+00 -2.421000e+00  1.360000e+00 # A
452 1 3 0.0000 -1.991000e+00 -1.896000e+00  7.650000e-01 # A
453 1 3 0.0000 -2.237000e+00 -1.865000e+00  7.030000e-01 # A
454 1 3 0.0000 -2.719000e+00 -1.236000e+00  5.800000e-01 # A
455 1 3 0.0000 -2.317000e+00 -6.330000e-01  8.760000e-01 # A
456 1 3 0.0000 -1.872000e+00 -5.600000e-01  8.180000e-01 # A
457 1 3 0.0000 -1.616000e+00  1.670000e-01  2.470000e-01 # A
458 1 3 0.0000 -1.615000e+00  2.030000e-01  1.020000e-01 # A
459 1 2 0.0000 -1.632000e+00 -8.980000e-01 -1.600000e-01 # A
460 1 3 0.0000 -1.609000e+00 -1.273000e+00 -5.000000e-02 # A
461 1 3 0.0000 -1.645000e+00 -2.079000e+00 -2.580000e-01 # A
462 1 3 0.0000 -1.507000e+00 -2.206000e+00 -2.410000e-01 # A
463 1 3 0.0000 -5.790000e-01 -1.531000e+00  7.500000e-02 # A
464 1 3 0.0000 -5.490000e-01 -1.527000e+00 -4.000000e-02 # A
465 1 3 0.0000  5.280000e-01 -1.302000e+00 -7.500000e-02 # A
466 1 3 0.0000  5.260000e-01 -1.321000e+00 -1.720000e-01 # A
467 1 3 0.0000  1.263000e+00 -1.526000e+00 -8.540000e-01 # A
468 1 3 0.0000  1.296000e+00 -1.282000e+00 -9.320000e-01 # A
469 1 3 0.0000  6.370000e-01 -9.800000e-01 -1.423000e+00 # A
470 1 4 0.0000  2.050000e-01 -1.411000e+00 -1.188000e+00 # A
471 1 3 0.0000 -1.680000e-01 -1.810000e+00 -1.168000e+00 # A
472 1 3 0.0000 -5.980000e-01 -2.124000e+00 -1.075000e+00 # A
473 1 3 0.0000 -1.152000e+00 -2.205000e+00 -1.192000e+00 # A
474 1 3 0.0000 -1.515000e+00 -2.564000e+00 -1.275000e+00 # A
475 1 3 0.0000 -1.984000e+00 -2.774000e+00 -1.413000e+00 # A
476 1 3 0.0000 -2.443000e+00 -2.870000e+00 -6.630000e-01 # A
477 1 3 0.0000 -2.537000e+00 -2.743000e+00 -4.240000e-01 # A
478 1 3 0.0000 -2.791000e+00 -2.724000e+00  3.210000e-01 # A
479 1 3 0.0000 -3.186000e+00 -2.331000e+00  3.660000e-01 # A
480 1 3 0.0000 -3.657000e+00 -2.068000e+00  4.850000e-01 # A
481 1 3 0.0000 -4.295000e+00 -2.283000e+00  4.500000e-01 # A
482 1 3 0.0000 -4.358000e+00 -2.738000e+00  2.620000e-01 # A
483 1 3 0.0000 -3.840000e+00 -2.822000e+00 -3.470000e-01 # A
484 1 3 0.0000 -3.429000e+00 -3.223000e+00 -3.290000e-01 # A
485 1 3 0.0000 -3.390000e+00 -3.569000e+00 -9.200000e-01 # A
486 1 3 0.0000 -2.672000e+00 -3.775000e+00 -2.720000e-01 # A
487 1 4 0.0000 -3.315000e+00 -4.251000e+00 -1.030000e-01 # A