LAMMPS data file. CGCMM style. atom_style full generated by VMD/TopoTools v1.7 on Mon Aug 06 17:13:54 EDT 2018
 8000 atoms
 7999 bonds
 7998 angles
 0 dihedrals
 0 impropers
 1 atom types
 1 bond types
 1 angle types
 0 dihedral types
 0 improper types
-160   160  xlo xhi
-160   160  ylo yhi
-160   160  zlo zhi

# Pair Coeffs
#
# 1  A

# Bond Coeffs
#
# 1  polymer

# Angle Coeffs
#
# 1  A-A-A

 Masses

 1 1.000000 # A

 Atoms # full

1 1 1 0.000000 10.432476 -2.541464 -14.375010 # A 
2 1 1 0.000000 11.160251 -1.971611 -14.739558 # A 
3 1 1 0.000000 10.907367 -2.705522 -15.352849 # A 
4 1 1 0.000000 11.442684 -3.053828 -14.727110 # A 
5 1 1 0.000000 10.833635 -3.834159 -14.364784 # A 
6 1 1 0.000000 11.231107 -4.585683 -13.818667 # A 
7 1 1 0.000000 11.379050 -4.024656 -13.074967 # A 
8 1 1 0.000000 12.311311 -4.373340 -13.580965 # A 
9 1 1 0.000000 11.894020 -4.012881 -14.504951 # A 
10 1 1 0.000000 11.882357 -3.342478 -13.792913 # A 
11 1 1 0.000000 11.003152 -3.088115 -13.612377 # A 
12 1 1 0.000000 11.033533 -2.358972 -13.088264 # A 
13 1 1 0.000000 10.609930 -1.462168 -12.715409 # A 
14 1 1 0.000000 10.410326 -1.671512 -13.698547 # A 
15 1 1 0.000000 9.814283 -0.972097 -13.352558 # A 
16 1 1 0.000000 9.901196 -0.711058 -12.302450 # A 
17 1 1 0.000000 10.610813 -0.265405 -12.685987 # A 
18 1 1 0.000000 10.479162 0.173086 -11.787731 # A 
19 1 1 0.000000 10.372999 0.897145 -11.015282 # A 
20 1 1 0.000000 10.654496 1.253302 -11.812378 # A 
21 1 1 0.000000 10.907614 2.207245 -11.444901 # A 
22 1 1 0.000000 10.536381 2.276329 -12.299612 # A 
23 1 1 0.000000 9.861100 1.680134 -12.491650 # A 
24 1 1 0.000000 9.476480 1.788128 -13.162033 # A 
25 1 1 0.000000 8.856645 2.186093 -12.558602 # A 
26 1 1 0.000000 8.441188 1.493622 -13.166728 # A 
27 1 1 0.000000 8.961847 1.043737 -12.527251 # A 
28 1 1 0.000000 9.915710 0.557236 -12.757395 # A 
29 1 1 0.000000 9.599281 0.881704 -13.796269 # A 
30 1 1 0.000000 10.467688 1.336243 -13.298385 # A 
31 1 1 0.000000 10.388559 2.286855 -13.371172 # A 
32 1 1 0.000000 10.812466 2.085740 -14.149605 # A 
33 1 1 0.000000 11.643466 2.044060 -14.798390 # A 
34 1 1 0.000000 11.052926 2.892676 -14.912791 # A 
35 1 1 0.000000 11.968991 2.753768 -15.492734 # A 
36 1 1 0.000000 12.772949 3.319862 -14.954691 # A 
37 1 1 0.000000 13.700213 3.655213 -14.823371 # A 
38 1 1 0.000000 13.993548 2.895098 -14.253637 # A 
39 1 1 0.000000 14.367393 1.998163 -13.972943 # A 
40 1 1 0.000000 13.374076 2.073081 -13.668900 # A 
41 1 1 0.000000 14.021584 1.923824 -12.904267 # A 
42 1 1 0.000000 14.183179 2.820060 -13.202242 # A 
43 1 1 0.000000 15.066367 2.476026 -13.169058 # A 
44 1 1 0.000000 15.752490 2.496010 -12.591051 # A 
45 1 1 0.000000 16.085249 1.786532 -13.095809 # A 
46 1 1 0.000000 15.999343 1.530519 -12.140024 # A 
47 1 1 0.000000 16.665041 2.172769 -12.112593 # A 
48 1 1 0.000000 16.761272 2.603178 -12.902842 # A 
49 1 1 0.000000 16.338585 2.794245 -13.819894 # A 
50 1 1 0.000000 16.169147 3.203926 -14.874996 # A 
51 1 1 0.000000 15.865349 3.409653 -15.844611 # A 
52 1 1 0.000000 15.438884 3.070381 -16.591705 # A 
53 1 1 0.000000 15.441228 3.494413 -17.377014 # A 
54 1 1 0.000000 15.408377 3.193532 -18.194550 # A 
55 1 1 0.000000 16.024302 2.457902 -18.517267 # A 
56 1 1 0.000000 15.173729 2.124864 -18.273748 # A 
57 1 1 0.000000 15.822795 2.456854 -17.458694 # A 
58 1 1 0.000000 16.446938 3.214631 -17.779898 # A 
59 1 1 0.000000 16.454878 3.189165 -16.894331 # A 
60 1 1 0.000000 16.141209 4.081809 -16.831020 # A 
61 1 1 0.000000 15.203357 4.126350 -16.510307 # A 
62 1 1 0.000000 14.845881 4.254303 -15.663107 # A 
63 1 1 0.000000 14.116110 4.175604 -16.347303 # A 
64 1 1 0.000000 14.415684 3.434673 -16.976063 # A 
65 1 1 0.000000 14.719105 2.640798 -17.436140 # A 
66 1 1 0.000000 14.997721 1.745329 -17.200960 # A 
67 1 1 0.000000 15.784240 1.371005 -17.778368 # A 
68 1 1 0.000000 14.816842 1.116347 -18.083204 # A 
69 1 1 0.000000 14.150534 0.548321 -17.760971 # A 
70 1 1 0.000000 13.788605 0.262431 -16.943644 # A 
71 1 1 0.000000 13.996487 0.851625 -16.258696 # A 
72 1 1 0.000000 13.466880 -0.007824 -15.908368 # A 
73 1 1 0.000000 12.798389 -0.228952 -16.789730 # A 
74 1 1 0.000000 12.852034 0.679399 -16.440897 # A 
75 1 1 0.000000 12.015985 1.103186 -16.445904 # A 
76 1 1 0.000000 12.315194 0.618178 -17.395752 # A 
77 1 1 0.000000 12.078711 0.369757 -18.273611 # A 
78 1 1 0.000000 12.368292 -0.198632 -18.972305 # A 
79 1 1 0.000000 12.625749 -0.560878 -18.049231 # A 
80 1 1 0.000000 13.164975 0.052454 -17.788340 # A 
81 1 1 0.000000 13.168584 0.449521 -18.609049 # A 
82 1 1 0.000000 13.993417 -0.034919 -18.656212 # A 
83 1 1 0.000000 13.375288 -0.686089 -18.905575 # A 
84 1 1 0.000000 14.041468 -1.000219 -19.528296 # A 
85 1 1 0.000000 13.124286 -1.181140 -19.837601 # A 
86 1 1 0.000000 13.744915 -1.962541 -20.097141 # A 
87 1 1 0.000000 14.251726 -2.029421 -20.961466 # A 
88 1 1 0.000000 14.067326 -1.055066 -20.632641 # A 
89 1 1 0.000000 15.010559 -1.218899 -20.940790 # A 
90 1 1 0.000000 14.846034 -1.684101 -20.086966 # A 
91 1 1 0.000000 15.281023 -2.348186 -20.861267 # A 
92 1 1 0.000000 15.944177 -3.090803 -20.684895 # A 
93 1 1 0.000000 16.130013 -3.663306 -19.939892 # A 
94 1 1 0.000000 16.423840 -4.037656 -19.017576 # A 
95 1 1 0.000000 16.347385 -4.735612 -18.333403 # A 
96 1 1 0.000000 16.394598 -5.397418 -17.534042 # A 
97 1 1 0.000000 16.273781 -5.761471 -18.504852 # A 
98 1 1 0.000000 16.234324 -5.115885 -19.320147 # A 
99 1 1 0.000000 16.459677 -5.506524 -20.284206 # A 
100 1 1 0.000000 16.571007 -6.137083 -19.477669 # A 
101 1 1 0.000000 17.207708 -6.283202 -20.240973 # A 
102 1 1 0.000000 16.736670 -6.922415 -20.873320 # A 
103 1 1 0.000000 17.718836 -7.075538 -20.865471 # A 
104 1 1 0.000000 18.276760 -6.552079 -20.199753 # A 
105 1 1 0.000000 18.377453 -6.975326 -19.298326 # A 
106 1 1 0.000000 17.423025 -7.142816 -19.733339 # A 
107 1 1 0.000000 17.381077 -6.817142 -18.803373 # A 
108 1 1 0.000000 17.557398 -6.877112 -17.805586 # A 
109 1 1 0.000000 16.851940 -7.499842 -17.390068 # A 
110 1 1 0.000000 17.251087 -6.982164 -16.749731 # A 
111 1 1 0.000000 18.160765 -7.043813 -16.839369 # A 
112 1 1 0.000000 18.950518 -6.582968 -17.327103 # A 
113 1 1 0.000000 19.146770 -5.916837 -18.159258 # A 
114 1 1 0.000000 19.234695 -5.170539 -19.013521 # A 
115 1 1 0.000000 19.394585 -4.589479 -20.019678 # A 
116 1 1 0.000000 19.224705 -3.603458 -20.053717 # A 
117 1 1 0.000000 18.920916 -3.965287 -20.888111 # A 
118 1 1 0.000000 18.578964 -4.598200 -21.549616 # A 
119 1 1 0.000000 19.032532 -5.500102 -21.642385 # A 
120 1 1 0.000000 19.544090 -4.876450 -21.035349 # A 
121 1 1 0.000000 20.011377 -3.984519 -20.719713 # A 
122 1 1 0.000000 19.614515 -3.108229 -21.001156 # A 
123 1 1 0.000000 19.354395 -2.570514 -21.825628 # A 
124 1 1 0.000000 18.921286 -2.116517 -22.602621 # A 
125 1 1 0.000000 18.296797 -2.179117 -21.753937 # A 
126 1 1 0.000000 18.088238 -1.508149 -22.390421 # A 
127 1 1 0.000000 17.319132 -0.976782 -22.433773 # A 
128 1 1 0.000000 17.202179 -1.894563 -21.769299 # A 
129 1 1 0.000000 16.341301 -2.143218 -21.210255 # A 
130 1 1 0.000000 16.282228 -3.000637 -21.745153 # A 
131 1 1 0.000000 16.418922 -2.281296 -22.367188 # A 
132 1 1 0.000000 16.936169 -1.962006 -23.020496 # A 
133 1 1 0.000000 17.834600 -2.054467 -23.285982 # A 
134 1 1 0.000000 17.621967 -2.622380 -22.455477 # A 
135 1 1 0.000000 17.616207 -3.126380 -23.347225 # A 
136 1 1 0.000000 17.254896 -4.069538 -23.453579 # A 
137 1 1 0.000000 17.263142 -5.094291 -23.517435 # A 
138 1 1 0.000000 16.329306 -5.189682 -23.568659 # A 
139 1 1 0.000000 16.704229 -5.834963 -22.966675 # A 
140 1 1 0.000000 16.332687 -4.865801 -22.556911 # A 
141 1 1 0.000000 16.346546 -4.147726 -21.848043 # A 
142 1 1 0.000000 15.619983 -3.883363 -21.346893 # A 
143 1 1 0.000000 15.290426 -4.361718 -22.211834 # A 
144 1 1 0.000000 14.861934 -4.749248 -21.245487 # A 
145 1 1 0.000000 15.772488 -5.087056 -21.561308 # A 
146 1 1 0.000000 14.753466 -5.420457 -22.069614 # A 
147 1 1 0.000000 13.727594 -5.889957 -22.342905 # A 
148 1 1 0.000000 12.982237 -5.821561 -23.000275 # A 
149 1 1 0.000000 12.088389 -5.823516 -22.974461 # A 
150 1 1 0.000000 11.836686 -6.646047 -22.692648 # A 
151 1 1 0.000000 11.815598 -6.625793 -23.678764 # A 
152 1 1 0.000000 12.393084 -5.986515 -23.982113 # A 
153 1 1 0.000000 12.125451 -5.535924 -24.706480 # A 
154 1 1 0.000000 11.747144 -5.048985 -23.941048 # A 
155 1 1 0.000000 11.238188 -5.693477 -23.633249 # A 
156 1 1 0.000000 11.018591 -6.051180 -22.939932 # A 
157 1 1 0.000000 10.604311 -6.227729 -22.364271 # A 
158 1 1 0.000000 11.108239 -6.816951 -21.879475 # A 
159 1 1 0.000000 10.820030 -7.141887 -22.985979 # A 
160 1 1 0.000000 9.845471 -6.549222 -22.948750 # A 
161 1 1 0.000000 10.062946 -6.984953 -23.832916 # A 
162 1 1 0.000000 10.304583 -7.774612 -24.486504 # A 
163 1 1 0.000000 11.016411 -7.012440 -24.207117 # A 
164 1 1 0.000000 11.165452 -6.140544 -24.596109 # A 
165 1 1 0.000000 11.212531 -6.639564 -25.311459 # A 
166 1 1 0.000000 10.272774 -6.690413 -24.942673 # A 
167 1 1 0.000000 10.294788 -5.825965 -25.331583 # A 
168 1 1 0.000000 9.409731 -5.322915 -25.709137 # A 
169 1 1 0.000000 9.459204 -4.714486 -26.473125 # A 
170 1 1 0.000000 9.467287 -3.722854 -26.492197 # A 
171 1 1 0.000000 9.828032 -4.162038 -27.382013 # A 
172 1 1 0.000000 9.860762 -4.066977 -28.422245 # A 
173 1 1 0.000000 10.276753 -4.491050 -29.207262 # A 
174 1 1 0.000000 9.982646 -3.791678 -29.933037 # A 
175 1 1 0.000000 10.950592 -3.789399 -29.632990 # A 
176 1 1 0.000000 11.612699 -3.804079 -28.944565 # A 
177 1 1 0.000000 11.334248 -3.150212 -28.317181 # A 
178 1 1 0.000000 11.938785 -2.785492 -28.688196 # A 
179 1 1 0.000000 11.342804 -2.070477 -28.655003 # A 
180 1 1 0.000000 11.659961 -1.394468 -27.875498 # A 
181 1 1 0.000000 12.342474 -1.912306 -28.115427 # A 
182 1 1 0.000000 11.618989 -2.446746 -27.559486 # A 
183 1 1 0.000000 12.491380 -2.505861 -27.187206 # A 
184 1 1 0.000000 13.095020 -3.156481 -27.093575 # A 
185 1 1 0.000000 13.836568 -2.640323 -26.863029 # A 
186 1 1 0.000000 14.628864 -2.155334 -26.674467 # A 
187 1 1 0.000000 15.463046 -1.564898 -26.751211 # A 
188 1 1 0.000000 15.106851 -1.684371 -27.603626 # A 
189 1 1 0.000000 15.456940 -2.469029 -27.344460 # A 
190 1 1 0.000000 16.167295 -1.935263 -27.621765 # A 
191 1 1 0.000000 16.919975 -1.952568 -27.091578 # A 
192 1 1 0.000000 16.954609 -2.701136 -27.803726 # A 
193 1 1 0.000000 16.631712 -2.898004 -28.669798 # A 
194 1 1 0.000000 15.924339 -3.016842 -28.161587 # A 
195 1 1 0.000000 15.538225 -3.605567 -28.844416 # A 
196 1 1 0.000000 14.807211 -4.158734 -29.515968 # A 
197 1 1 0.000000 14.630580 -4.812798 -30.192135 # A 
198 1 1 0.000000 14.593118 -3.831046 -30.506817 # A 
199 1 1 0.000000 15.208218 -4.022231 -31.292027 # A 
200 1 1 0.000000 15.936262 -3.576303 -31.766012 # A 
201 1 1 0.000000 16.871765 -3.694676 -31.982605 # A 
202 1 1 0.000000 16.782034 -3.402918 -31.032093 # A 
203 1 1 0.000000 17.766317 -3.237945 -31.206720 # A 
204 1 1 0.000000 18.722311 -3.020571 -30.699226 # A 
205 1 1 0.000000 19.682959 -3.064505 -30.952675 # A 
206 1 1 0.000000 20.573179 -2.639121 -30.952805 # A 
207 1 1 0.000000 21.672188 -2.500315 -30.948753 # A 
208 1 1 0.000000 21.904814 -3.182697 -30.698326 # A 
209 1 1 0.000000 22.758673 -2.993994 -30.117926 # A 
210 1 1 0.000000 22.085295 -2.857137 -29.613758 # A 
211 1 1 0.000000 21.962694 -1.905814 -29.303877 # A 
212 1 1 0.000000 21.590307 -1.205604 -29.994841 # A 
213 1 1 0.000000 22.488987 -0.901658 -29.720819 # A 
214 1 1 0.000000 22.432726 -0.874870 -30.701040 # A 
215 1 1 0.000000 21.986725 -1.426267 -30.980955 # A 
216 1 1 0.000000 22.016277 -0.895141 -31.672470 # A 
217 1 1 0.000000 21.555561 -0.266995 -32.294952 # A 
218 1 1 0.000000 20.902151 -0.748918 -31.842199 # A 
219 1 1 0.000000 20.942076 0.012776 -31.432356 # A 
220 1 1 0.000000 21.314360 -0.594720 -30.836035 # A 
221 1 1 0.000000 21.200771 0.253684 -30.394823 # A 
222 1 1 0.000000 21.918709 -0.071296 -30.123562 # A 
223 1 1 0.000000 22.151934 0.819916 -30.537346 # A 
224 1 1 0.000000 22.088671 0.059817 -31.250799 # A 
225 1 1 0.000000 22.930658 0.075532 -30.527496 # A 
226 1 1 0.000000 23.713812 -0.193227 -31.031466 # A 
227 1 1 0.000000 24.057642 0.539043 -30.465511 # A 
228 1 1 0.000000 23.961369 -0.219148 -30.007015 # A 
229 1 1 0.000000 24.749823 -0.410968 -30.608028 # A 
230 1 1 0.000000 25.129784 0.110124 -29.972437 # A 
231 1 1 0.000000 25.153486 0.597404 -30.842951 # A 
232 1 1 0.000000 25.951275 0.215286 -30.770927 # A 
233 1 1 0.000000 26.105602 0.934837 -31.469944 # A 
234 1 1 0.000000 25.221907 1.147663 -31.842220 # A 
235 1 1 0.000000 24.678339 1.706866 -32.620579 # A 
236 1 1 0.000000 25.594101 2.016829 -32.438976 # A 
237 1 1 0.000000 26.129080 1.642285 -32.302425 # A 
238 1 1 0.000000 26.430420 1.069212 -32.799503 # A 
239 1 1 0.000000 27.156483 1.199551 -33.459423 # A 
240 1 1 0.000000 27.412153 1.431474 -32.484562 # A 
241 1 1 0.000000 26.993422 2.114715 -32.906441 # A 
242 1 1 0.000000 26.371561 2.731901 -32.746635 # A 
243 1 1 0.000000 26.809607 2.379054 -31.879358 # A 
244 1 1 0.000000 25.924992 2.801885 -31.720842 # A 
245 1 1 0.000000 24.954254 2.535767 -31.693022 # A 
246 1 1 0.000000 25.305281 3.041613 -32.580883 # A 
247 1 1 0.000000 24.391169 2.845413 -32.589596 # A 
248 1 1 0.000000 23.604128 3.115428 -33.195648 # A 
249 1 1 0.000000 23.566654 2.148417 -32.821365 # A 
250 1 1 0.000000 23.872532 1.376986 -33.420719 # A 
251 1 1 0.000000 24.551388 1.422574 -34.116512 # A 
252 1 1 0.000000 24.149729 0.514730 -34.338421 # A 
253 1 1 0.000000 23.519617 0.407074 -34.998608 # A 
254 1 1 0.000000 23.761286 -0.501089 -34.744839 # A 
255 1 1 0.000000 23.542006 -0.275380 -33.867275 # A 
256 1 1 0.000000 23.209215 -1.131312 -34.066547 # A 
257 1 1 0.000000 23.993456 -1.575480 -34.201946 # A 
258 1 1 0.000000 23.059662 -2.205495 -34.275806 # A 
259 1 1 0.000000 23.427999 -2.035163 -33.399254 # A 
260 1 1 0.000000 22.487833 -1.759096 -33.365253 # A 
261 1 1 0.000000 21.888243 -1.653378 -32.495544 # A 
262 1 1 0.000000 21.260117 -1.811741 -31.724569 # A 
263 1 1 0.000000 20.916086 -1.612061 -30.848925 # A 
264 1 1 0.000000 20.355625 -1.671232 -30.156563 # A 
265 1 1 0.000000 20.364592 -2.759749 -29.934652 # A 
266 1 1 0.000000 21.212717 -2.344863 -29.998646 # A 
267 1 1 0.000000 21.107164 -3.050706 -29.180519 # A 
268 1 1 0.000000 20.987053 -3.249880 -28.176655 # A 
269 1 1 0.000000 21.999954 -3.457034 -28.080351 # A 
270 1 1 0.000000 21.804386 -2.593236 -28.383938 # A 
271 1 1 0.000000 21.600721 -2.726217 -27.382433 # A 
272 1 1 0.000000 22.162756 -2.015063 -27.432358 # A 
273 1 1 0.000000 22.814264 -2.567612 -27.925406 # A 
274 1 1 0.000000 22.750734 -2.973313 -27.112043 # A 
275 1 1 0.000000 22.593229 -3.185170 -25.947643 # A 
276 1 1 0.000000 21.894079 -3.501239 -26.598904 # A 
277 1 1 0.000000 22.482422 -4.245951 -26.292393 # A 
278 1 1 0.000000 21.621983 -4.062274 -25.735556 # A 
279 1 1 0.000000 21.111113 -4.648171 -25.504877 # A 
280 1 1 0.000000 21.721670 -5.214022 -25.545214 # A 
281 1 1 0.000000 21.615805 -4.891775 -26.469969 # A 
282 1 1 0.000000 21.032146 -5.467579 -26.308008 # A 
283 1 1 0.000000 21.025719 -5.077769 -27.360643 # A 
284 1 1 0.000000 21.206715 -4.304091 -28.193111 # A 
285 1 1 0.000000 20.725595 -4.353834 -29.157633 # A 
286 1 1 0.000000 20.329994 -4.912093 -28.244129 # A 
287 1 1 0.000000 19.900679 -4.066373 -28.507872 # A 
288 1 1 0.000000 19.919844 -3.679231 -29.484478 # A 
289 1 1 0.000000 20.431431 -3.765894 -30.303633 # A 
290 1 1 0.000000 19.862206 -4.475922 -30.894363 # A 
291 1 1 0.000000 19.272045 -3.934184 -30.372980 # A 
292 1 1 0.000000 19.071980 -3.807392 -31.408234 # A 
293 1 1 0.000000 18.629326 -3.062020 -31.823797 # A 
294 1 1 0.000000 19.059132 -2.317171 -31.414215 # A 
295 1 1 0.000000 18.338333 -1.835694 -31.955118 # A 
296 1 1 0.000000 19.029387 -1.182811 -31.755056 # A 
297 1 1 0.000000 19.473314 -0.245951 -32.123894 # A 
298 1 1 0.000000 20.382965 0.125327 -32.427341 # A 
299 1 1 0.000000 20.269592 -0.681808 -32.748161 # A 
300 1 1 0.000000 20.806831 -1.448145 -32.654694 # A 
301 1 1 0.000000 20.717623 -2.169386 -33.106998 # A 
302 1 1 0.000000 20.392899 -3.050538 -33.456539 # A 
303 1 1 0.000000 20.375284 -4.178602 -33.438095 # A 
304 1 1 0.000000 20.336065 -4.881415 -32.727833 # A 
305 1 1 0.000000 19.703997 -5.486472 -32.677181 # A 
306 1 1 0.000000 19.395861 -5.900228 -31.862835 # A 
307 1 1 0.000000 18.436766 -6.184362 -31.664003 # A 
308 1 1 0.000000 17.832542 -6.763999 -31.075232 # A 
309 1 1 0.000000 17.926100 -7.767375 -30.939653 # A 
310 1 1 0.000000 17.225760 -7.492852 -31.657028 # A 
311 1 1 0.000000 16.946642 -7.358433 -30.713552 # A 
312 1 1 0.000000 16.352655 -6.927641 -31.270964 # A 
313 1 1 0.000000 15.506785 -6.468263 -31.253881 # A 
314 1 1 0.000000 14.772545 -6.728486 -31.766954 # A 
315 1 1 0.000000 14.787511 -5.636107 -31.529675 # A 
316 1 1 0.000000 14.408955 -4.741435 -31.256908 # A 
317 1 1 0.000000 13.977680 -4.991742 -32.004223 # A 
318 1 1 0.000000 13.266059 -4.782471 -31.392910 # A 
319 1 1 0.000000 13.565163 -4.082936 -30.816326 # A 
320 1 1 0.000000 13.433425 -3.484077 -30.018902 # A 
321 1 1 0.000000 13.698428 -4.297156 -29.651810 # A 
322 1 1 0.000000 13.652155 -3.857121 -28.899139 # A 
323 1 1 0.000000 12.593751 -4.084255 -29.333050 # A 
324 1 1 0.000000 12.581288 -3.658875 -28.448441 # A 
325 1 1 0.000000 12.878151 -2.855345 -28.129078 # A 
326 1 1 0.000000 13.344531 -2.123380 -27.690973 # A 
327 1 1 0.000000 14.044156 -1.712894 -27.445436 # A 
328 1 1 0.000000 14.412885 -0.763243 -27.388353 # A 
329 1 1 0.000000 14.284708 -0.275058 -28.362314 # A 
330 1 1 0.000000 15.226897 -0.705443 -28.192785 # A 
331 1 1 0.000000 14.388309 -1.391193 -28.420813 # A 
332 1 1 0.000000 14.763434 -0.809382 -29.137987 # A 
333 1 1 0.000000 15.191447 -0.660986 -30.095901 # A 
334 1 1 0.000000 14.610517 -0.692541 -31.096571 # A 
335 1 1 0.000000 14.419398 -1.507865 -31.592096 # A 
336 1 1 0.000000 13.855853 -1.756720 -32.459793 # A 
337 1 1 0.000000 13.339181 -1.441762 -31.735592 # A 
338 1 1 0.000000 12.971444 -1.093582 -32.557961 # A 
339 1 1 0.000000 13.655943 -0.828144 -33.159084 # A 
340 1 1 0.000000 13.955218 -0.694238 -32.258366 # A 
341 1 1 0.000000 14.690787 -1.121499 -32.839184 # A 
342 1 1 0.000000 15.074280 -0.686453 -32.096596 # A 
343 1 1 0.000000 15.596988 -1.531799 -32.396976 # A 
344 1 1 0.000000 14.849912 -2.117138 -32.323975 # A 
345 1 1 0.000000 15.513226 -2.811177 -32.455795 # A 
346 1 1 0.000000 14.899079 -3.041021 -31.699854 # A 
347 1 1 0.000000 15.010219 -3.825935 -32.359241 # A 
348 1 1 0.000000 15.055982 -4.793703 -32.197868 # A 
349 1 1 0.000000 15.869003 -4.663433 -31.892052 # A 
350 1 1 0.000000 15.822498 -4.367931 -32.875980 # A 
351 1 1 0.000000 15.949923 -5.389206 -32.711323 # A 
352 1 1 0.000000 16.913139 -5.937560 -32.882362 # A 
353 1 1 0.000000 17.636656 -6.269485 -32.456234 # A 
354 1 1 0.000000 17.944166 -6.110939 -33.374405 # A 
355 1 1 0.000000 18.741123 -5.988430 -32.826485 # A 
356 1 1 0.000000 18.675785 -5.056037 -32.448605 # A 
357 1 1 0.000000 19.071594 -4.927640 -31.627552 # A 
358 1 1 0.000000 19.562847 -4.461287 -32.169395 # A 
359 1 1 0.000000 20.225473 -5.070338 -31.730001 # A 
360 1 1 0.000000 20.584787 -5.847765 -32.152321 # A 
361 1 1 0.000000 21.417950 -5.850886 -31.738586 # A 
362 1 1 0.000000 22.148258 -6.167538 -31.083069 # A 
363 1 1 0.000000 22.375757 -5.276705 -31.592918 # A 
364 1 1 0.000000 23.152113 -5.062204 -32.098640 # A 
365 1 1 0.000000 24.104141 -5.198107 -32.579468 # A 
366 1 1 0.000000 23.410244 -4.996804 -33.187302 # A 
367 1 1 0.000000 23.349758 -5.462288 -34.030704 # A 
368 1 1 0.000000 24.237885 -5.045518 -33.953991 # A 
369 1 1 0.000000 23.555304 -4.476157 -34.572166 # A 
370 1 1 0.000000 23.153961 -4.448615 -35.479740 # A 
371 1 1 0.000000 23.148544 -3.531392 -35.146984 # A 
372 1 1 0.000000 22.805267 -2.862944 -35.737213 # A 
373 1 1 0.000000 22.058939 -2.340888 -36.264278 # A 
374 1 1 0.000000 22.800278 -2.413773 -36.826241 # A 
375 1 1 0.000000 22.078123 -2.086023 -37.357021 # A 
376 1 1 0.000000 22.429520 -1.416138 -36.809566 # A 
377 1 1 0.000000 23.364075 -1.474640 -36.870529 # A 
378 1 1 0.000000 23.208504 -0.603248 -36.507778 # A 
379 1 1 0.000000 22.845490 -0.099237 -35.613617 # A 
380 1 1 0.000000 21.910362 0.315947 -35.550846 # A 
381 1 1 0.000000 21.734781 0.566976 -34.587540 # A 
382 1 1 0.000000 22.582376 0.878371 -34.891499 # A 
383 1 1 0.000000 22.687880 -0.065482 -34.479580 # A 
384 1 1 0.000000 23.142218 0.790338 -33.974533 # A 
385 1 1 0.000000 22.202513 0.519342 -33.634064 # A 
386 1 1 0.000000 22.072992 1.399469 -33.991703 # A 
387 1 1 0.000000 21.184040 0.885260 -33.720379 # A 
388 1 1 0.000000 21.623638 1.310820 -32.973083 # A 
389 1 1 0.000000 21.172308 2.047046 -33.717617 # A 
390 1 1 0.000000 20.620537 2.696887 -34.334713 # A 
391 1 1 0.000000 20.519592 3.436930 -35.073315 # A 
392 1 1 0.000000 19.733427 3.225015 -34.658394 # A 
393 1 1 0.000000 19.326214 3.577981 -35.566662 # A 
394 1 1 0.000000 18.617155 3.539640 -36.343563 # A 
395 1 1 0.000000 18.440573 4.288470 -35.734615 # A 
396 1 1 0.000000 18.784721 4.863242 -34.971573 # A 
397 1 1 0.000000 18.875610 4.030914 -34.702236 # A 
398 1 1 0.000000 18.052124 3.914125 -34.772076 # A 
399 1 1 0.000000 17.685841 4.832675 -35.151184 # A 
400 1 1 0.000000 17.990923 4.851402 -34.210075 # A 
401 1 1 0.000000 17.100443 5.040259 -33.875084 # A 
402 1 1 0.000000 17.032898 4.266465 -34.454277 # A 
403 1 1 0.000000 17.127628 3.908595 -35.370495 # A 
404 1 1 0.000000 16.662645 3.230688 -35.913528 # A 
405 1 1 0.000000 17.479506 3.429775 -36.383629 # A 
406 1 1 0.000000 17.850731 2.721070 -37.100170 # A 
407 1 1 0.000000 17.228518 3.184445 -37.687469 # A 
408 1 1 0.000000 17.952236 3.837942 -37.201786 # A 
409 1 1 0.000000 17.656185 4.360669 -38.024250 # A 
410 1 1 0.000000 17.224104 4.641673 -37.126518 # A 
411 1 1 0.000000 16.664919 4.127770 -37.661369 # A 
412 1 1 0.000000 16.261795 4.925355 -37.675587 # A 
413 1 1 0.000000 17.088089 5.328067 -37.996487 # A 
414 1 1 0.000000 16.738029 4.662523 -38.650803 # A 
415 1 1 0.000000 17.409220 4.167075 -39.047997 # A 
416 1 1 0.000000 17.768162 3.498474 -39.651897 # A 
417 1 1 0.000000 16.965458 3.288974 -40.095215 # A 
418 1 1 0.000000 16.438787 2.486070 -39.491234 # A 
419 1 1 0.000000 16.842579 3.156907 -39.009502 # A 
420 1 1 0.000000 17.281796 2.321663 -38.659740 # A 
421 1 1 0.000000 17.825565 3.203695 -38.619385 # A 
422 1 1 0.000000 18.468782 3.552212 -38.151260 # A 
423 1 1 0.000000 18.631163 2.585776 -38.217731 # A 
424 1 1 0.000000 19.037495 3.062517 -39.103100 # A 
425 1 1 0.000000 19.069328 2.052038 -39.668819 # A 
426 1 1 0.000000 19.096127 1.448806 -40.417900 # A 
427 1 1 0.000000 19.462130 2.223935 -40.817154 # A 
428 1 1 0.000000 19.866327 2.986894 -41.427784 # A 
429 1 1 0.000000 19.174171 3.287915 -40.787712 # A 
430 1 1 0.000000 18.538279 2.926854 -40.111374 # A 
431 1 1 0.000000 18.165770 2.467187 -39.300003 # A 
432 1 1 0.000000 17.475868 2.386567 -39.749496 # A 
433 1 1 0.000000 17.687656 2.717924 -40.674427 # A 
434 1 1 0.000000 17.960127 3.583939 -40.780045 # A 
435 1 1 0.000000 17.738432 3.901730 -41.937725 # A 
436 1 1 0.000000 17.509983 4.164354 -42.893898 # A 
437 1 1 0.000000 18.378616 3.764823 -42.860630 # A 
438 1 1 0.000000 18.505445 2.843493 -43.220642 # A 
439 1 1 0.000000 19.137880 2.666184 -43.882870 # A 
440 1 1 0.000000 18.582029 3.032467 -44.374065 # A 
441 1 1 0.000000 19.019323 3.754670 -43.675842 # A 
442 1 1 0.000000 19.669271 3.964231 -44.347626 # A 
443 1 1 0.000000 20.404160 4.138376 -45.060143 # A 
444 1 1 0.000000 20.974081 4.231265 -45.857704 # A 
445 1 1 0.000000 21.259470 4.041822 -46.781258 # A 
446 1 1 0.000000 21.911980 4.710972 -46.246220 # A 
447 1 1 0.000000 21.874960 4.865219 -47.197266 # A 
448 1 1 0.000000 22.860126 4.909540 -46.715946 # A 
449 1 1 0.000000 23.493961 5.653996 -46.428062 # A 
450 1 1 0.000000 23.798859 6.343188 -45.888023 # A 
451 1 1 0.000000 22.941637 6.560775 -46.072895 # A 
452 1 1 0.000000 22.364973 5.767830 -46.142849 # A 
453 1 1 0.000000 21.938189 6.355219 -45.510452 # A 
454 1 1 0.000000 21.332603 5.392121 -45.604000 # A 
455 1 1 0.000000 20.664087 5.702056 -44.966030 # A 
456 1 1 0.000000 19.926693 5.095639 -44.577736 # A 
457 1 1 0.000000 18.989061 4.757881 -44.499874 # A 
458 1 1 0.000000 19.339460 4.797675 -43.656609 # A 
459 1 1 0.000000 19.414368 4.533716 -42.879993 # A 
460 1 1 0.000000 19.819746 4.820718 -41.926956 # A 
461 1 1 0.000000 20.390942 5.779226 -41.736267 # A 
462 1 1 0.000000 19.356722 5.796447 -41.758240 # A 
463 1 1 0.000000 19.615875 6.719977 -41.484734 # A 
464 1 1 0.000000 19.984009 6.431640 -42.478008 # A 
465 1 1 0.000000 19.791510 5.563922 -42.834572 # A 
466 1 1 0.000000 20.353456 5.382037 -43.653160 # A 
467 1 1 0.000000 20.333595 4.369680 -43.489891 # A 
468 1 1 0.000000 20.664940 4.964185 -42.746429 # A 
469 1 1 0.000000 20.886919 4.670485 -41.922695 # A 
470 1 1 0.000000 21.040115 3.951671 -42.618317 # A 
471 1 1 0.000000 20.186762 3.956731 -42.355923 # A 
472 1 1 0.000000 20.705786 3.707009 -41.540573 # A 
473 1 1 0.000000 20.626965 2.948422 -42.268318 # A 
474 1 1 0.000000 20.822144 2.139971 -42.645638 # A 
475 1 1 0.000000 20.544428 1.358928 -43.262314 # A 
476 1 1 0.000000 19.739817 1.792053 -43.553112 # A 
477 1 1 0.000000 19.895430 1.213636 -44.322830 # A 
478 1 1 0.000000 19.412897 1.337575 -45.235363 # A 
479 1 1 0.000000 19.249020 1.386482 -46.242805 # A 
480 1 1 0.000000 19.399244 2.252268 -46.662884 # A 
481 1 1 0.000000 19.916243 3.082285 -46.969414 # A 
482 1 1 0.000000 20.386236 3.700234 -47.587490 # A 
483 1 1 0.000000 21.146002 4.295641 -47.861340 # A 
484 1 1 0.000000 20.394871 4.298140 -48.561512 # A 
485 1 1 0.000000 19.405354 4.311866 -48.493481 # A 
486 1 1 0.000000 18.581491 4.249744 -49.057507 # A 
487 1 1 0.000000 17.778784 4.051686 -48.522194 # A 
488 1 1 0.000000 17.786875 5.016881 -48.792202 # A 
489 1 1 0.000000 18.513287 4.859221 -48.157295 # A 
490 1 1 0.000000 17.690634 4.752521 -47.673038 # A 
491 1 1 0.000000 17.200390 4.623805 -46.817451 # A 
492 1 1 0.000000 16.358858 4.240287 -46.549019 # A 
493 1 1 0.000000 15.983434 4.227336 -45.792877 # A 
494 1 1 0.000000 16.147890 4.817132 -45.387516 # A 
495 1 1 0.000000 16.963667 4.691807 -45.724712 # A 
496 1 1 0.000000 17.710279 5.206674 -45.401970 # A 
497 1 1 0.000000 17.938122 5.088967 -44.527618 # A 
498 1 1 0.000000 16.960451 4.970244 -44.647846 # A 
499 1 1 0.000000 17.260057 4.411733 -44.013893 # A 
500 1 1 0.000000 18.275654 4.570905 -43.626129 # A 
501 1 1 0.000000 17.793865 3.498566 -43.740585 # A 
502 1 1 0.000000 18.210577 4.018930 -44.515610 # A 
503 1 1 0.000000 17.638475 4.168078 -45.113670 # A 
504 1 1 0.000000 16.937731 3.589355 -45.699276 # A 
505 1 1 0.000000 16.637600 3.916860 -44.799351 # A 
506 1 1 0.000000 17.456356 3.206271 -44.708118 # A 
507 1 1 0.000000 16.695852 2.853536 -44.989311 # A 
508 1 1 0.000000 15.934306 3.238843 -45.440506 # A 
509 1 1 0.000000 15.722298 2.394931 -45.198788 # A 
510 1 1 0.000000 14.948307 2.802218 -45.659103 # A 
511 1 1 0.000000 14.998845 3.735282 -45.782089 # A 
512 1 1 0.000000 14.064164 3.504578 -45.767742 # A 
513 1 1 0.000000 13.224407 3.663235 -46.288216 # A 
514 1 1 0.000000 13.514297 4.583453 -45.886345 # A 
515 1 1 0.000000 13.404778 5.427415 -46.232243 # A 
516 1 1 0.000000 13.410654 5.879481 -45.474075 # A 
517 1 1 0.000000 13.452571 6.827375 -45.564621 # A 
518 1 1 0.000000 12.967355 6.433430 -46.419323 # A 
519 1 1 0.000000 12.492438 7.103843 -46.101707 # A 
520 1 1 0.000000 12.459105 6.456312 -45.459908 # A 
521 1 1 0.000000 12.435500 5.509769 -45.164207 # A 
522 1 1 0.000000 12.295083 5.602655 -46.067142 # A 
523 1 1 0.000000 12.572548 4.699862 -46.451752 # A 
524 1 1 0.000000 12.179720 3.858560 -46.370865 # A 
525 1 1 0.000000 12.710773 3.896814 -47.213230 # A 
526 1 1 0.000000 12.398973 4.239986 -48.090107 # A 
527 1 1 0.000000 12.164409 5.297204 -48.218868 # A 
528 1 1 0.000000 12.893096 5.634466 -48.783356 # A 
529 1 1 0.000000 12.258291 6.289332 -49.004887 # A 
530 1 1 0.000000 11.809813 5.514900 -49.277870 # A 
531 1 1 0.000000 11.878427 6.122770 -50.081894 # A 
532 1 1 0.000000 11.874120 5.907989 -51.079273 # A 
533 1 1 0.000000 11.330517 6.547786 -51.757771 # A 
534 1 1 0.000000 12.434387 6.655442 -51.814739 # A 
535 1 1 0.000000 12.106422 6.023781 -52.365158 # A 
536 1 1 0.000000 12.926804 5.406162 -52.254856 # A 
537 1 1 0.000000 12.547518 4.596756 -52.796284 # A 
538 1 1 0.000000 11.855313 4.913895 -52.215187 # A 
539 1 1 0.000000 10.962293 5.400446 -52.208172 # A 
540 1 1 0.000000 10.061738 4.800744 -51.740089 # A 
541 1 1 0.000000 10.045923 4.783400 -50.857704 # A 
542 1 1 0.000000 9.369258 4.317472 -50.363342 # A 
543 1 1 0.000000 9.164697 4.330609 -51.327694 # A 
544 1 1 0.000000 8.218513 4.277128 -51.146862 # A 
545 1 1 0.000000 8.303843 5.130932 -51.571281 # A 
546 1 1 0.000000 9.289412 5.425116 -51.231018 # A 
547 1 1 0.000000 8.675655 5.181675 -50.541374 # A 
548 1 1 0.000000 7.996842 5.164061 -49.960773 # A 
549 1 1 0.000000 8.343020 4.202742 -50.066601 # A 
550 1 1 0.000000 8.785030 4.415471 -49.416046 # A 
551 1 1 0.000000 7.773272 4.412919 -49.157093 # A 
552 1 1 0.000000 8.341663 4.392892 -48.359287 # A 
553 1 1 0.000000 8.375016 5.345457 -48.913113 # A 
554 1 1 0.000000 8.355439 6.168361 -49.520939 # A 
555 1 1 0.000000 8.706244 6.876295 -48.914547 # A 
556 1 1 0.000000 9.286665 7.480532 -49.508728 # A 
557 1 1 0.000000 8.616046 7.048650 -50.066879 # A 
558 1 1 0.000000 8.301342 7.892334 -50.240200 # A 
559 1 1 0.000000 7.416920 8.193736 -50.632820 # A 
560 1 1 0.000000 7.489156 8.454643 -49.762074 # A 
561 1 1 0.000000 6.549214 8.652701 -50.146622 # A 
562 1 1 0.000000 6.675051 7.702862 -49.875046 # A 
563 1 1 0.000000 7.139995 7.527137 -49.019619 # A 
564 1 1 0.000000 7.457831 8.364777 -48.670334 # A 
565 1 1 0.000000 6.598298 8.527061 -49.053406 # A 