LAMMPS (22 Aug 2018)
#   ----    This script is the lammps input to construct the initial structure of chromosome  ----

units           lj
atom_style      full
boundary        s   s   s
special_bonds   lj 0.0 0.0 1.0 extra 512

read_data       data.chromosome
  orthogonal box = (-30000 -30000 -30000) to (30000 30000 30000)
  1 by 1 by 1 MPI processor grid
  reading atoms ...
  30000 atoms
  scanning bonds ...
  1 = max bonds/atom
  scanning angles ...
  1 = max angles/atom
  reading bonds ...
  29999 bonds
  reading angles ...
  29998 angles
  2 = max # of 1-2 neighbors
  2 = max # of 1-3 neighbors
  4 = max # of 1-4 neighbors
  518 = max # of special neighbors

neighbor        0.4 bin
neigh_modify    every 1 delay 1
atom_modify     sort 0 0.0

bond_style      fene
bond_coeff      1 30.0 1.5 1.0 1.0

pair_style      lj/cut 1.12
pair_modify     shift yes
pair_coeff      1 1 1.0 1.0 1.12

velocity        all create 1 492845 rot yes mom yes dist gaussian
fix             1 all nve
fix             2 all langevin 1.0 1.0 1 4928459

group           chrom id 1:30000
30000 atoms in group chrom
group2ndx       groups.ndx
Writing groups to index file groups.ndx:
 writing group all... done
 writing group chrom... done


#   ----    Apply collective variable to condense the structure ----
fix             3 all colvars ../../../gyration.colvars output out
fix_modify      3 energy yes

thermo          100
thermo_style    custom time temp pe etotal press vol
dump            1 all dcd 100 DUMP_FILE.dcd
dump_modify     1 unwrap yes

timestep        0.006

minimize        1.0e-4 1.0e-6 100 1000
WARNING: Using 'neigh_modify every 1 delay 0 check yes' setting during minimization (../min.cpp:168)
WARNING: Use special bonds = 0,1,1 with bond style fene (../bond_fene.cpp:188)
WARNING: Using fix colvars with minimization (../fix_colvars.cpp:399)
Neighbor list info ...
  update every 1 steps, delay 0 steps, check yes
  max neighbors/atom: 2000, page size: 100000
  master list distance cutoff = 1.52
  ghost atom cutoff = 1.52
  binsize = 0.76, bins = 16 39489 16
  1 neighbor lists, perpetual/occasional/extra = 1 0 0
  (1) pair lj/cut, perpetual
      attributes: half, newton on
      pair build: half/bin/newton
      stencil: half/bin/3d/newton
      bin: standard
colvars: Creating proxy instance
colvars: ----------------------------------------------------------------------
colvars: Initializing the collective variables module, version 2018-04-29.
colvars: Please cite Fiorin et al, Mol Phys 2013:
colvars:  http://dx.doi.org/10.1080/00268976.2013.813594
colvars: in any publication based on this calculation.
colvars: Using LAMMPS interface, version 2018-04-29.
colvars: ----------------------------------------------------------------------
colvars: Reading new configuration from file "../../../gyration.colvars":
colvars: # indexFile = "groups.ndx"
colvars: The following index groups were read from the index file "groups.ndx":
colvars:   System (30000 atoms).
colvars:   chrom (30000 atoms).
colvars: # smp = on [default]
colvars: # analysis = off [default]
colvars: # colvarsTrajFrequency = 100
colvars: # colvarsRestartFrequency = 100
colvars: # scriptedColvarForces = off [default]
colvars: # scriptingAfterBiases = off [default]
colvars: ----------------------------------------------------------------------
colvars:   Initializing a new collective variable.
colvars:   # name = "chrom"
colvars:   Initializing a new "gyration" component.
colvars:     # name = "" [default]
colvars:     # componentCoeff = 1 [default]
colvars:     # componentExp = 1 [default]
colvars:     # period = 0 [default]
colvars:     # wrapAround = 0 [default]
colvars:     # forceNoPBC = off [default]
colvars:     # scalable = on [default]
colvars:       Initializing atom group "atoms".
colvars:       # name = "" [default]
colvars:       # centerReference = off [default]
colvars:       # rotateReference = off [default]
colvars:       # atomsOfGroup = "" [default]
colvars:       # indexGroup = "chrom"
colvars:       # psfSegID =  [default]
colvars:       # atomsFile = "" [default]
colvars:       # dummyAtom = ( 0 , 0 , 0 ) [default]
colvars:       # enableForces = on [default]
colvars:       # enableFitGradients = on [default]
colvars:       # printAtomIDs = off [default]
colvars:       Atom group "atoms" defined, 30000 atoms initialized: total mass = 30000, total charge = 0.
colvars:   All components initialized.
colvars:   # timeStepFactor = 1 [default]
colvars:   # width = 1
colvars:   # lowerBoundary = 0 [default]
colvars:   # upperBoundary = 0 [default]
colvars:   # expandBoundaries = off [default]
colvars:   # extendedLagrangian = off [default]
colvars:   # outputValue = on [default]
colvars:   # outputVelocity = off [default]
colvars:   # outputTotalForce = off [default]
colvars:   # outputAppliedForce = off [default]
colvars:   # subtractAppliedForce = off [default]
colvars: ----------------------------------------------------------------------
colvars: Collective variables initialized, 1 in total.
colvars: ----------------------------------------------------------------------
colvars:   Initializing a new "harmonic" instance.
colvars:   # name = "h_pot"
colvars:   # colvars = { chrom }
colvars:   # outputEnergy = on
colvars:   # timeStepFactor = 1 [default]
colvars:   # writeTISamples = off [default]
colvars:   # writeTIPMF = off [default]
colvars:   # centers = { 1 }
colvars:   # targetCenters = { 1 } [default]
colvars:   # outputCenters = off [default]
colvars:   # forceConstant = 400
colvars:   # targetForceConstant = -1 [default]
colvars: ----------------------------------------------------------------------
colvars: Collective variables biases initialized, 1 in total.
colvars: ----------------------------------------------------------------------
colvars: Collective variables module (re)initialized.
colvars: ----------------------------------------------------------------------
colvars: Re-initialized atom group chrom:0/0. 30000 atoms: total mass = 30000.
colvars: The restart output state file will be "rest.colvars.state".
colvars: The final output state file will be "out.colvars.state".
colvars: Writing to colvar trajectory file "out.colvars.traj".
colvars: Re-initialized atom group chrom:0/0. 30000 atoms: total mass = 30000.
Per MPI rank memory allocation (min/avg/max) = 144.3 | 144.3 | 144.3 Mbytes
Time Temp PotEng TotEng Press Volume 
           0            1    499905.37    499906.87 -0.062475009      4321584 
       0.006            1    499899.58    499901.08 -0.062465265      4321584 
colvars: Saving collective variables state to "out.colvars.state".
Loop time of 0.00910497 on 1 procs for 1 steps with 30000 atoms

99.3% CPU use with 1 MPI tasks x no OpenMP threads

Minimization stats:
  Stopping criterion = energy tolerance
  Energy initial, next-to-last, final = 
         499905.373163      499905.373163      499899.576296
  Force two-norm initial, final = 19998.3 19998.2
  Force max component initial, final = 229.97 221.554
  Final line search alpha, max atom move = 0.000434839 0.0963401
  Iterations, force evaluations = 1 1

MPI task timing breakdown:
Section |  min time  |  avg time  |  max time  |%varavg| %total
---------------------------------------------------------------
Pair    | 0.00030017 | 0.00030017 | 0.00030017 |   0.0 |  3.30
Bond    | 0.0028751  | 0.0028751  | 0.0028751  |   0.0 | 31.58
Neigh   | 0          | 0          | 0          |   0.0 |  0.00
Comm    | 0          | 0          | 0          |   0.0 |  0.00
Output  | 0          | 0          | 0          |   0.0 |  0.00
Modify  | 0.003968   | 0.003968   | 0.003968   |   0.0 | 43.58
Other   |            | 0.001962   |            |       | 21.55

Nlocal:    30000 ave 30000 max 30000 min
Histogram: 1 0 0 0 0 0 0 0 0 0
Nghost:    0 ave 0 max 0 min
Histogram: 1 0 0 0 0 0 0 0 0 0
Neighs:    0 ave 0 max 0 min
Histogram: 1 0 0 0 0 0 0 0 0 0

Total # of neighbors = 0
Ave neighs/atom = 0
Ave special neighs/atom = 5.9996
Neighbor list builds = 0
Dangerous builds = 0
run           150000
WARNING: Use special bonds = 0,1,1 with bond style fene (../bond_fene.cpp:188)
colvars: Re-initialized atom group chrom:0/0. 30000 atoms: total mass = 30000.
Per MPI rank memory allocation (min/avg/max) = 142.3 | 142.3 | 142.3 Mbytes
Time Temp PotEng TotEng Press Volume 
           0            1    499899.58    499901.08 -0.062465682    4321555.2 
colvars: Synchronizing (emptying the buffer of) trajectory file "out.colvars.traj".
colvars: Saving collective variables state to "rest.colvars.state".
       0.594    895.14636    497950.06    499292.74    4.6751205    5664838.3 
colvars: Synchronizing (emptying the buffer of) trajectory file "out.colvars.traj".
colvars: Saving collective variables state to "rest.colvars.state".
       1.194    2153.1503    493292.19    496521.81    10.280185    6247434.5 
colvars: Synchronizing (emptying the buffer of) trajectory file "out.colvars.traj".
colvars: Saving collective variables state to "rest.colvars.state".
       1.794     3054.751    487197.98    491779.95    13.897726    6568969.8 
colvars: Synchronizing (emptying the buffer of) trajectory file "out.colvars.traj".
colvars: Saving collective variables state to "rest.colvars.state".
       2.394    3590.5502    480370.38    485756.02    15.885726      6760349 
colvars: Synchronizing (emptying the buffer of) trajectory file "out.colvars.traj".
colvars: Saving collective variables state to "rest.colvars.state".
       2.994    3875.6812     473196.8    479010.13    16.859621    6878830.4 
colvars: Synchronizing (emptying the buffer of) trajectory file "out.colvars.traj".
colvars: Saving collective variables state to "rest.colvars.state".
       3.594    4008.0881     465887.9    471899.83    16.295322    7362455.3 
colvars: Synchronizing (emptying the buffer of) trajectory file "out.colvars.traj".
colvars: Saving collective variables state to "rest.colvars.state".
       4.194    4052.2608    458559.54    464637.72    16.038492    7564469.9 
colvars: Synchronizing (emptying the buffer of) trajectory file "out.colvars.traj".
colvars: Saving collective variables state to "rest.colvars.state".
       4.794    4047.1828    451273.78    457344.35    15.888694    7627548.3 
colvars: Synchronizing (emptying the buffer of) trajectory file "out.colvars.traj".
colvars: Saving collective variables state to "rest.colvars.state".
       5.394    4015.1259    444064.35    450086.84    15.094416    7966379.9 
colvars: Synchronizing (emptying the buffer of) trajectory file "out.colvars.traj".
colvars: Saving collective variables state to "rest.colvars.state".
       5.994    3969.2578    436948.13    442901.82    15.021449    7914886.5 
colvars: Synchronizing (emptying the buffer of) trajectory file "out.colvars.traj".
colvars: Saving collective variables state to "rest.colvars.state".
       6.594    3915.5554    429933.67    435806.81    14.843249      7902361 
colvars: Synchronizing (emptying the buffer of) trajectory file "out.colvars.traj".
colvars: Saving collective variables state to "rest.colvars.state".
       7.194    3857.7635    423025.45    428811.91    14.340756    8059200.9 
colvars: Synchronizing (emptying the buffer of) trajectory file "out.colvars.traj".
colvars: Saving collective variables state to "rest.colvars.state".
       7.794    3799.1545    416224.56     421923.1    13.927994    8172684.8 
colvars: Synchronizing (emptying the buffer of) trajectory file "out.colvars.traj".
colvars: Saving collective variables state to "rest.colvars.state".
       8.394    3740.0678    409530.71    415140.63     13.55009      8270496 
colvars: Synchronizing (emptying the buffer of) trajectory file "out.colvars.traj".
colvars: Saving collective variables state to "rest.colvars.state".
       8.994    3680.2239     402943.7    408463.85    13.501215    8168315.6 
colvars: Synchronizing (emptying the buffer of) trajectory file "out.colvars.traj".
colvars: Saving collective variables state to "rest.colvars.state".
       9.594    3621.6377    396461.91    401894.18    13.001849    8347170.6 
colvars: Synchronizing (emptying the buffer of) trajectory file "out.colvars.traj".
colvars: Saving collective variables state to "rest.colvars.state".
      10.194    3563.9875    390084.08    395429.88    12.406315    8608797.9 
colvars: Synchronizing (emptying the buffer of) trajectory file "out.colvars.traj".
colvars: Saving collective variables state to "rest.colvars.state".
      10.794    3506.6407    383808.45    389068.24    11.862531    8858933.1 
colvars: Synchronizing (emptying the buffer of) trajectory file "out.colvars.traj".
colvars: Saving collective variables state to "rest.colvars.state".
      11.394    3449.9163    377634.07    382808.77    11.722431    8820284.6 
colvars: Synchronizing (emptying the buffer of) trajectory file "out.colvars.traj".
colvars: Saving collective variables state to "rest.colvars.state".
      11.994     3394.492    371559.16    376650.73    11.577211    8787571.2 
colvars: Synchronizing (emptying the buffer of) trajectory file "out.colvars.traj".
colvars: Saving collective variables state to "rest.colvars.state".
      12.594    3340.1083    365581.86    370591.86     10.94825    9143639.8 
colvars: Synchronizing (emptying the buffer of) trajectory file "out.colvars.traj".
colvars: Saving collective variables state to "rest.colvars.state".
      13.194    3286.8673    359700.43    364630.56    10.433547    9442107.5 
colvars: Synchronizing (emptying the buffer of) trajectory file "out.colvars.traj".
colvars: Saving collective variables state to "rest.colvars.state".
      13.794    3233.5404     353913.6    358763.75     10.01107    9680831.2 
colvars: Synchronizing (emptying the buffer of) trajectory file "out.colvars.traj".
colvars: Saving collective variables state to "rest.colvars.state".
      14.394    3181.9142    348220.01    352992.72    9.9541998    9581261.9 
colvars: Synchronizing (emptying the buffer of) trajectory file "out.colvars.traj".
colvars: Saving collective variables state to "rest.colvars.state".
      14.994    3130.1581    342618.08    347313.16    9.8735672    9502372.5 
colvars: Synchronizing (emptying the buffer of) trajectory file "out.colvars.traj".
colvars: Saving collective variables state to "rest.colvars.state".
      15.594    3080.4342    337106.16    341726.66    10.000184    9233154.5 
colvars: Synchronizing (emptying the buffer of) trajectory file "out.colvars.traj".
colvars: Saving collective variables state to "rest.colvars.state".
      16.194    3030.8339    331682.76    336228.86    9.6481538    9416450.9 
colvars: Synchronizing (emptying the buffer of) trajectory file "out.colvars.traj".
colvars: Saving collective variables state to "rest.colvars.state".
      16.794    2982.0658    326346.51    330819.46    9.5580636    9351829.1 
colvars: Synchronizing (emptying the buffer of) trajectory file "out.colvars.traj".
colvars: Saving collective variables state to "rest.colvars.state".
      17.394    2934.1299    321096.31    325497.36    9.1169165      9646998 
colvars: Synchronizing (emptying the buffer of) trajectory file "out.colvars.traj".
colvars: Saving collective variables state to "rest.colvars.state".
      17.994    2886.9336     315930.5    320260.76     9.173828    9432736.1 
colvars: Synchronizing (emptying the buffer of) trajectory file "out.colvars.traj".
colvars: Saving collective variables state to "rest.colvars.state".
      18.594    2840.3169    310847.81    315108.14    8.8602655    9608909.4 
colvars: Synchronizing (emptying the buffer of) trajectory file "out.colvars.traj".
colvars: Saving collective variables state to "rest.colvars.state".
      19.194     2795.026    305846.84    310039.24    8.8080124    9511657.8 
colvars: Synchronizing (emptying the buffer of) trajectory file "out.colvars.traj".
colvars: Saving collective variables state to "rest.colvars.state".
      19.794    2749.7034     300926.3    305050.72    8.4239811    9784464.6 
colvars: Synchronizing (emptying the buffer of) trajectory file "out.colvars.traj".
colvars: Saving collective variables state to "rest.colvars.state".
      20.394    2705.5574    296085.13    300143.33    8.3992862    9655584.1 
colvars: Synchronizing (emptying the buffer of) trajectory file "out.colvars.traj".
colvars: Saving collective variables state to "rest.colvars.state".
      20.994     2661.311    291322.11    295313.94    8.2570798    9661617.6 
colvars: Synchronizing (emptying the buffer of) trajectory file "out.colvars.traj".
colvars: Saving collective variables state to "rest.colvars.state".
      21.594    2618.1717    286636.16    290563.29    8.1186879    9666999.7 
colvars: Synchronizing (emptying the buffer of) trajectory file "out.colvars.traj".
colvars: Saving collective variables state to "rest.colvars.state".
      22.194    2576.7506    282025.45    285890.45    7.6000107     10163456 
colvars: Synchronizing (emptying the buffer of) trajectory file "out.colvars.traj".
colvars: Saving collective variables state to "rest.colvars.state".
      22.794    2535.6201    277488.39    281291.69    7.6360646    9953603.8 
colvars: Synchronizing (emptying the buffer of) trajectory file "out.colvars.traj".
colvars: Saving collective variables state to "rest.colvars.state".
      23.394    2494.5023     273024.4    276766.03    7.2421939     10324630 
colvars: Synchronizing (emptying the buffer of) trajectory file "out.colvars.traj".
colvars: Saving collective variables state to "rest.colvars.state".
      23.994    2454.4277    268632.27    272313.79    7.8247133    9402448.8 
colvars: Synchronizing (emptying the buffer of) trajectory file "out.colvars.traj".
colvars: Saving collective variables state to "rest.colvars.state".
      24.594    2414.6551    264311.12    267932.98    7.6733273    9432659.8 
colvars: Synchronizing (emptying the buffer of) trajectory file "out.colvars.traj".
colvars: Saving collective variables state to "rest.colvars.state".
      25.194    2376.0133    260059.43    263623.33    7.6846291    9268197.1 
colvars: Synchronizing (emptying the buffer of) trajectory file "out.colvars.traj".
colvars: Saving collective variables state to "rest.colvars.state".
      25.794     2337.924     255876.1    259382.87    7.7673551    9022595.5 
colvars: Synchronizing (emptying the buffer of) trajectory file "out.colvars.traj".
colvars: Saving collective variables state to "rest.colvars.state".
      26.394    2300.6605    251759.68    255210.55    7.8881879    8742753.1 
colvars: Synchronizing (emptying the buffer of) trajectory file "out.colvars.traj".
colvars: Saving collective variables state to "rest.colvars.state".
      26.994    2263.5093    247709.33    251104.48     7.713578    8795591.6 
colvars: Synchronizing (emptying the buffer of) trajectory file "out.colvars.traj".
colvars: Saving collective variables state to "rest.colvars.state".
      27.594    2227.0731    243724.29    247064.78    7.6758291    8696922.9 
colvars: Synchronizing (emptying the buffer of) trajectory file "out.colvars.traj".
colvars: Saving collective variables state to "rest.colvars.state".
      28.194    2191.0507    239803.52    243089.98    7.5788367    8666243.8 
colvars: Synchronizing (emptying the buffer of) trajectory file "out.colvars.traj".
colvars: Saving collective variables state to "rest.colvars.state".
      28.794    2156.1406    235945.97    239180.07    7.3626611    8777980.2 
colvars: Synchronizing (emptying the buffer of) trajectory file "out.colvars.traj".
colvars: Saving collective variables state to "rest.colvars.state".
      29.394    2121.1456    232150.51    235332.12    7.2468246    8773640.5 
colvars: Synchronizing (emptying the buffer of) trajectory file "out.colvars.traj".
colvars: Saving collective variables state to "rest.colvars.state".
      29.994    2087.0536    228416.09    231546.57    7.2941696    8576711.3 
colvars: Synchronizing (emptying the buffer of) trajectory file "out.colvars.traj".
colvars: Saving collective variables state to "rest.colvars.state".
      30.594    2053.5792    224741.64     227821.9    7.0064213    8785735.2 
colvars: Synchronizing (emptying the buffer of) trajectory file "out.colvars.traj".
colvars: Saving collective variables state to "rest.colvars.state".
      31.194    2020.8807    221126.15    224157.37    7.0038298    8649410.7 
colvars: Synchronizing (emptying the buffer of) trajectory file "out.colvars.traj".
colvars: Saving collective variables state to "rest.colvars.state".
      31.794    1987.7596    217568.87    220550.41    6.7341163    8847872.2 
colvars: Synchronizing (emptying the buffer of) trajectory file "out.colvars.traj".
colvars: Saving collective variables state to "rest.colvars.state".
      32.394    1955.5269    214069.31    217002.51    6.4806105      9045127 
colvars: Synchronizing (emptying the buffer of) trajectory file "out.colvars.traj".
colvars: Saving collective variables state to "rest.colvars.state".
      32.994    1924.1994    210626.11    213512.31     6.416545    8989077.9 
colvars: Synchronizing (emptying the buffer of) trajectory file "out.colvars.traj".
colvars: Saving collective variables state to "rest.colvars.state".
      33.594    1892.9897    207238.25    210077.64    6.0688202    9349731.1 
colvars: Synchronizing (emptying the buffer of) trajectory file "out.colvars.traj".
colvars: Saving collective variables state to "rest.colvars.state".
      34.194    1863.2218    203904.84    206699.58    6.1164472      9130961 
colvars: Synchronizing (emptying the buffer of) trajectory file "out.colvars.traj".
colvars: Saving collective variables state to "rest.colvars.state".
      34.794    1833.5489    200624.72    203374.95    6.1073936    8999171.9 
colvars: Synchronizing (emptying the buffer of) trajectory file "out.colvars.traj".
colvars: Saving collective variables state to "rest.colvars.state".
      35.394    1803.9511    197397.31    200103.15    6.0711489    8905809.5 
colvars: Synchronizing (emptying the buffer of) trajectory file "out.colvars.traj".
colvars: Saving collective variables state to "rest.colvars.state".
      35.994    1774.7365    194221.82    196883.83    5.9166948    8990656.8 
colvars: Synchronizing (emptying the buffer of) trajectory file "out.colvars.traj".
colvars: Saving collective variables state to "rest.colvars.state".
      36.594    1746.4263    191097.47    193717.03    6.0308814    8680285.9 
colvars: Synchronizing (emptying the buffer of) trajectory file "out.colvars.traj".
colvars: Saving collective variables state to "rest.colvars.state".
      37.194    1718.4068    188023.25    190600.77     5.770305    8926796.7 
colvars: Synchronizing (emptying the buffer of) trajectory file "out.colvars.traj".
colvars: Saving collective variables state to "rest.colvars.state".
      37.794    1690.6768    184998.61    187534.54    5.7969175    8742147.5 
colvars: Synchronizing (emptying the buffer of) trajectory file "out.colvars.traj".
colvars: Saving collective variables state to "rest.colvars.state".
      38.394    1663.5842    182022.55    184517.85    5.8183475    8569963.1 
colvars: Synchronizing (emptying the buffer of) trajectory file "out.colvars.traj".
colvars: Saving collective variables state to "rest.colvars.state".
      38.994    1636.6464    179094.56    181549.45    5.7458049    8537723.9 
colvars: Synchronizing (emptying the buffer of) trajectory file "out.colvars.traj".
colvars: Saving collective variables state to "rest.colvars.state".
      39.594    1610.5806    176213.42    178629.21     5.643784    8553473.4 
colvars: Synchronizing (emptying the buffer of) trajectory file "out.colvars.traj".
colvars: Saving collective variables state to "rest.colvars.state".
      40.194    1584.6157    173378.57    175755.42    5.5455738    8565212.2 
colvars: Synchronizing (emptying the buffer of) trajectory file "out.colvars.traj".
colvars: Saving collective variables state to "rest.colvars.state".
      40.794    1558.5246    170589.68    172927.39    5.4285647    8605246.2 
colvars: Synchronizing (emptying the buffer of) trajectory file "out.colvars.traj".
colvars: Saving collective variables state to "rest.colvars.state".
      41.394    1533.6092    167845.86     170146.2    5.4858979    8378730.2 
colvars: Synchronizing (emptying the buffer of) trajectory file "out.colvars.traj".
colvars: Saving collective variables state to "rest.colvars.state".
      41.994    1508.8239    165146.21    167409.37    5.4039377    8368309.1 
colvars: Synchronizing (emptying the buffer of) trajectory file "out.colvars.traj".
colvars: Saving collective variables state to "rest.colvars.state".
      42.594    1484.3057    162490.19    164716.58    5.1824779    8584494.7 
colvars: Synchronizing (emptying the buffer of) trajectory file "out.colvars.traj".
colvars: Saving collective variables state to "rest.colvars.state".
      43.194     1461.145    159876.66    162068.31    5.0528603    8667372.7 
colvars: Synchronizing (emptying the buffer of) trajectory file "out.colvars.traj".
colvars: Saving collective variables state to "rest.colvars.state".
      43.794    1437.6343    157304.82     159461.2    4.9919871    8630933.6 
colvars: Synchronizing (emptying the buffer of) trajectory file "out.colvars.traj".
colvars: Saving collective variables state to "rest.colvars.state".
      44.394    1414.6218    154774.58    156896.44     5.040587    8411334.7 
colvars: Synchronizing (emptying the buffer of) trajectory file "out.colvars.traj".
colvars: Saving collective variables state to "rest.colvars.state".
      44.994    1392.3629    152284.65    154373.12    5.0987708    8184267.8 
colvars: Synchronizing (emptying the buffer of) trajectory file "out.colvars.traj".
colvars: Saving collective variables state to "rest.colvars.state".
      45.594    1369.2965    149834.82     151888.7    5.0169217    8179970.8 
colvars: Synchronizing (emptying the buffer of) trajectory file "out.colvars.traj".
colvars: Saving collective variables state to "rest.colvars.state".
      46.194    1347.2682     147424.7    149445.54    4.9197362    8207565.4 
colvars: Synchronizing (emptying the buffer of) trajectory file "out.colvars.traj".
colvars: Saving collective variables state to "rest.colvars.state".
      46.794     1325.332     145053.5    147041.43    4.5288816    8770808.6 
colvars: Synchronizing (emptying the buffer of) trajectory file "out.colvars.traj".
colvars: Saving collective variables state to "rest.colvars.state".
      47.394    1304.2878    142720.39    144676.76     4.494403    8697263.8 
colvars: Synchronizing (emptying the buffer of) trajectory file "out.colvars.traj".
colvars: Saving collective variables state to "rest.colvars.state".
      47.994    1283.5397    140424.61    142349.86    4.5894115      8381716 
colvars: Synchronizing (emptying the buffer of) trajectory file "out.colvars.traj".
colvars: Saving collective variables state to "rest.colvars.state".
      48.594    1262.9745    138165.77    140060.17    4.5883166    8249610.9 
colvars: Synchronizing (emptying the buffer of) trajectory file "out.colvars.traj".
colvars: Saving collective variables state to "rest.colvars.state".
      49.194    1242.6455     135943.1    137807.01    4.5130745    8252535.4 
colvars: Synchronizing (emptying the buffer of) trajectory file "out.colvars.traj".
colvars: Saving collective variables state to "rest.colvars.state".
      49.794    1222.4469    133756.33    135589.94     4.515452    8113210.7 
colvars: Synchronizing (emptying the buffer of) trajectory file "out.colvars.traj".
colvars: Saving collective variables state to "rest.colvars.state".
      50.394    1202.9341    131604.81    133409.15    4.4018441    8189795.9 
colvars: Synchronizing (emptying the buffer of) trajectory file "out.colvars.traj".
colvars: Saving collective variables state to "rest.colvars.state".
      50.994    1183.6586    129487.84    131263.27    4.3377616    8177135.7 
colvars: Synchronizing (emptying the buffer of) trajectory file "out.colvars.traj".
colvars: Saving collective variables state to "rest.colvars.state".
      51.594    1164.7518    127404.91    129151.98    4.3004669    8116196.1 
colvars: Synchronizing (emptying the buffer of) trajectory file "out.colvars.traj".
colvars: Saving collective variables state to "rest.colvars.state".
      52.194    1146.0093    125355.34     127074.3    4.2062126    8165345.1 
colvars: Synchronizing (emptying the buffer of) trajectory file "out.colvars.traj".
colvars: Saving collective variables state to "rest.colvars.state".
      52.794    1127.8575    123338.53    125030.26    4.2936355    7872719.4 
colvars: Synchronizing (emptying the buffer of) trajectory file "out.colvars.traj".
colvars: Saving collective variables state to "rest.colvars.state".
      53.394    1109.2686    121354.34    123018.19    4.0807185    8145832.4 
colvars: Synchronizing (emptying the buffer of) trajectory file "out.colvars.traj".
colvars: Saving collective variables state to "rest.colvars.state".
      53.994    1090.8591     119402.6    121038.84     3.967342    8239316.6 
colvars: Synchronizing (emptying the buffer of) trajectory file "out.colvars.traj".
colvars: Saving collective variables state to "rest.colvars.state".
      54.594    1073.2151    117482.53     119092.3    4.1435722    7761025.8 
colvars: Synchronizing (emptying the buffer of) trajectory file "out.colvars.traj".
colvars: Saving collective variables state to "rest.colvars.state".
      55.194    1056.5106     115593.2    117177.91    3.9390125    8037875.6 
colvars: Synchronizing (emptying the buffer of) trajectory file "out.colvars.traj".
colvars: Saving collective variables state to "rest.colvars.state".
      55.794     1039.641    113733.81    115293.22    3.9047415    7978732.8 
colvars: Synchronizing (emptying the buffer of) trajectory file "out.colvars.traj".
colvars: Saving collective variables state to "rest.colvars.state".
      56.394     1023.088    111904.37    113438.95    3.9028154    7855232.4 
colvars: Synchronizing (emptying the buffer of) trajectory file "out.colvars.traj".
colvars: Saving collective variables state to "rest.colvars.state".
      56.994    1006.4581    110104.23    111613.87    3.8938202    7745205.1 
colvars: Synchronizing (emptying the buffer of) trajectory file "out.colvars.traj".
colvars: Saving collective variables state to "rest.colvars.state".
      57.594    990.49275    108333.03    109818.72    3.9724149      7471899 
colvars: Synchronizing (emptying the buffer of) trajectory file "out.colvars.traj".
colvars: Saving collective variables state to "rest.colvars.state".
      58.194    974.31579    106590.49    108051.92    3.8681871    7547816.6 
colvars: Synchronizing (emptying the buffer of) trajectory file "out.colvars.traj".
colvars: Saving collective variables state to "rest.colvars.state".
      58.794    958.91111    104875.99    106314.31    3.7828614    7596508.3 
colvars: Synchronizing (emptying the buffer of) trajectory file "out.colvars.traj".
colvars: Saving collective variables state to "rest.colvars.state".
      59.394    942.98963    103189.06     104603.5    3.7608048    7512673.2 
colvars: Synchronizing (emptying the buffer of) trajectory file "out.colvars.traj".
colvars: Saving collective variables state to "rest.colvars.state".
      59.994    928.23128    101529.45    102921.75    3.7830022    7352419.2 
colvars: Synchronizing (emptying the buffer of) trajectory file "out.colvars.traj".
colvars: Saving collective variables state to "rest.colvars.state".
      60.594    913.24528    99896.364    101266.19    3.6732047    7450180.7 
colvars: Synchronizing (emptying the buffer of) trajectory file "out.colvars.traj".
colvars: Saving collective variables state to "rest.colvars.state".
      61.194    898.42725    98289.619    99637.215    3.5627543    7555466.2 
colvars: Synchronizing (emptying the buffer of) trajectory file "out.colvars.traj".
colvars: Saving collective variables state to "rest.colvars.state".
      61.794      883.591    96709.035    98034.377    3.5536087    7450004.1 
colvars: Synchronizing (emptying the buffer of) trajectory file "out.colvars.traj".
colvars: Saving collective variables state to "rest.colvars.state".
      62.394    869.61316    95153.933    96458.309    3.4891126    7467232.3 
colvars: Synchronizing (emptying the buffer of) trajectory file "out.colvars.traj".
colvars: Saving collective variables state to "rest.colvars.state".
      62.994    855.81398    93623.704    94907.383    3.4535344    7425050.2 
colvars: Synchronizing (emptying the buffer of) trajectory file "out.colvars.traj".
colvars: Saving collective variables state to "rest.colvars.state".
      63.594    842.17049    92117.843    93381.057    3.3836536    7456887.6 
colvars: Synchronizing (emptying the buffer of) trajectory file "out.colvars.traj".
colvars: Saving collective variables state to "rest.colvars.state".
      64.194    828.43877    90636.328    91878.945    3.4144798    7268535.3 
colvars: Synchronizing (emptying the buffer of) trajectory file "out.colvars.traj".
colvars: Saving collective variables state to "rest.colvars.state".
      64.794    815.13333    89178.701     90401.36    3.3994781    7183863.1 
colvars: Synchronizing (emptying the buffer of) trajectory file "out.colvars.traj".
colvars: Saving collective variables state to "rest.colvars.state".
      65.394    802.11811     87744.43    88947.567    3.3333154    7208278.5 
colvars: Synchronizing (emptying the buffer of) trajectory file "out.colvars.traj".
colvars: Saving collective variables state to "rest.colvars.state".
      65.994    789.35097    86333.208    87517.195    3.2439821    7289520.9 
colvars: Synchronizing (emptying the buffer of) trajectory file "out.colvars.traj".
colvars: Saving collective variables state to "rest.colvars.state".
      66.594    776.76474    84944.592      86109.7     3.207029    7256055.4 
colvars: Synchronizing (emptying the buffer of) trajectory file "out.colvars.traj".
colvars: Saving collective variables state to "rest.colvars.state".
      67.194     764.1769    83578.401    84724.629    3.1152546    7348149.5 
colvars: Synchronizing (emptying the buffer of) trajectory file "out.colvars.traj".
colvars: Saving collective variables state to "rest.colvars.state".
      67.794    751.74687    82234.147     83361.73     3.127639    7200759.2 
colvars: Synchronizing (emptying the buffer of) trajectory file "out.colvars.traj".
colvars: Saving collective variables state to "rest.colvars.state".
      68.394    739.76425    80911.672    82021.282    3.1160912    7112178.2 
colvars: Synchronizing (emptying the buffer of) trajectory file "out.colvars.traj".
colvars: Saving collective variables state to "rest.colvars.state".
      68.994    728.07084    79610.351    80702.421    3.0498994    7152216.3 
colvars: Synchronizing (emptying the buffer of) trajectory file "out.colvars.traj".
colvars: Saving collective variables state to "rest.colvars.state".
      69.594    716.44544    78329.757     79404.39    3.0653586    7000374.4 
colvars: Synchronizing (emptying the buffer of) trajectory file "out.colvars.traj".
colvars: Saving collective variables state to "rest.colvars.state".
      70.194     704.9586    77069.735    78127.137    2.9294295    7209492.4 
colvars: Synchronizing (emptying the buffer of) trajectory file "out.colvars.traj".
colvars: Saving collective variables state to "rest.colvars.state".
      70.794    693.70379    75829.946    76870.467    3.0009108    6924351.9 
colvars: Synchronizing (emptying the buffer of) trajectory file "out.colvars.traj".
colvars: Saving collective variables state to "rest.colvars.state".
      71.394     682.3715    74610.143    75633.666     3.016203    6776356.3 
colvars: Synchronizing (emptying the buffer of) trajectory file "out.colvars.traj".
colvars: Saving collective variables state to "rest.colvars.state".
      71.994    671.67423    73409.991    74417.469    3.0462899    6605623.9 
colvars: Synchronizing (emptying the buffer of) trajectory file "out.colvars.traj".
colvars: Saving collective variables state to "rest.colvars.state".
      72.594    660.52848    72229.291     73220.05     2.920252      6774571 
colvars: Synchronizing (emptying the buffer of) trajectory file "out.colvars.traj".
colvars: Saving collective variables state to "rest.colvars.state".
      73.194    650.10113    71067.562    72042.681    2.8944369    6726708.9 
colvars: Synchronizing (emptying the buffer of) trajectory file "out.colvars.traj".
colvars: Saving collective variables state to "rest.colvars.state".
      73.794    639.85948    69924.389    70884.146    2.9575727    6478940.5 
colvars: Synchronizing (emptying the buffer of) trajectory file "out.colvars.traj".
colvars: Saving collective variables state to "rest.colvars.state".
      74.394    629.13207    68799.661    69743.327    2.9829741    6317016.3 
colvars: Synchronizing (emptying the buffer of) trajectory file "out.colvars.traj".
colvars: Saving collective variables state to "rest.colvars.state".
      74.994    619.19674    67693.127    68621.891     2.922152    6346912.6 
colvars: Synchronizing (emptying the buffer of) trajectory file "out.colvars.traj".
colvars: Saving collective variables state to "rest.colvars.state".
      75.594    609.21345    66604.449    67518.238    2.9045338    6281605.5 
colvars: Synchronizing (emptying the buffer of) trajectory file "out.colvars.traj".
colvars: Saving collective variables state to "rest.colvars.state".
      76.194    599.24418    65533.294    66432.131    2.8561264      6282531 
colvars: Synchronizing (emptying the buffer of) trajectory file "out.colvars.traj".
colvars: Saving collective variables state to "rest.colvars.state".
      76.794    589.59107    64479.464    65363.821    2.8084505      6287461 
colvars: Synchronizing (emptying the buffer of) trajectory file "out.colvars.traj".
colvars: Saving collective variables state to "rest.colvars.state".
      77.394    580.30837    63442.438    64312.871    2.7390653    6344399.6 
colvars: Synchronizing (emptying the buffer of) trajectory file "out.colvars.traj".
colvars: Saving collective variables state to "rest.colvars.state".
      77.994    570.81217    62422.181    63278.371    2.7261728    6270865.7 
colvars: Synchronizing (emptying the buffer of) trajectory file "out.colvars.traj".
colvars: Saving collective variables state to "rest.colvars.state".
      78.594    561.91264    61418.263    62261.103    2.7065938    6217103.9 
colvars: Synchronizing (emptying the buffer of) trajectory file "out.colvars.traj".
colvars: Saving collective variables state to "rest.colvars.state".
      79.194    552.79761    60430.459    61259.628    2.6434519    6261335.9 
colvars: Synchronizing (emptying the buffer of) trajectory file "out.colvars.traj".
colvars: Saving collective variables state to "rest.colvars.state".
      79.794    544.09539    59458.516    60274.632      2.60343    6258042.6 
colvars: Synchronizing (emptying the buffer of) trajectory file "out.colvars.traj".
colvars: Saving collective variables state to "rest.colvars.state".
      80.394    535.38621    58502.089    59305.141    2.5799059    6213571.6 
colvars: Synchronizing (emptying the buffer of) trajectory file "out.colvars.traj".
colvars: Saving collective variables state to "rest.colvars.state".
      80.994    526.75592    57561.083    58351.191    2.5945549    6077808.9 
colvars: Synchronizing (emptying the buffer of) trajectory file "out.colvars.traj".
colvars: Saving collective variables state to "rest.colvars.state".
      81.594    518.38052     56635.26    57412.805    2.5417329    6106780.7 
colvars: Synchronizing (emptying the buffer of) trajectory file "out.colvars.traj".
colvars: Saving collective variables state to "rest.colvars.state".
      82.194    510.12854    55724.175    56489.342    2.5372863    6019520.1 
colvars: Synchronizing (emptying the buffer of) trajectory file "out.colvars.traj".
colvars: Saving collective variables state to "rest.colvars.state".
      82.794    501.76521    54827.841    55580.464    2.5028213    6002859.9 
colvars: Synchronizing (emptying the buffer of) trajectory file "out.colvars.traj".
colvars: Saving collective variables state to "rest.colvars.state".
      83.394    493.59964    53946.086    54686.461    2.4844311    5946941.2 
colvars: Synchronizing (emptying the buffer of) trajectory file "out.colvars.traj".
colvars: Saving collective variables state to "rest.colvars.state".
      83.994     485.7454    53078.532    53807.125    2.3186344    6272429.2 
colvars: Synchronizing (emptying the buffer of) trajectory file "out.colvars.traj".
colvars: Saving collective variables state to "rest.colvars.state".
      84.594    478.05858    52224.755    52941.819    2.2113556    6471516.7 
colvars: Synchronizing (emptying the buffer of) trajectory file "out.colvars.traj".
colvars: Saving collective variables state to "rest.colvars.state".
      85.194    470.26322    51384.689     52090.06    2.2388314      6287446 
colvars: Synchronizing (emptying the buffer of) trajectory file "out.colvars.traj".
colvars: Saving collective variables state to "rest.colvars.state".
      85.794    462.62129    50558.332    51252.241    2.1742127    6370122.2 
colvars: Synchronizing (emptying the buffer of) trajectory file "out.colvars.traj".
colvars: Saving collective variables state to "rest.colvars.state".
      86.394    454.91752    49745.373    50427.727    2.1931893    6209530.3 
colvars: Synchronizing (emptying the buffer of) trajectory file "out.colvars.traj".
colvars: Saving collective variables state to "rest.colvars.state".
      86.994    447.87134    48945.478    49617.263     2.264336    5920261.3 
colvars: Synchronizing (emptying the buffer of) trajectory file "out.colvars.traj".
colvars: Saving collective variables state to "rest.colvars.state".
      87.594    440.84866    48158.371    48819.622    2.2132643    5961046.3 
colvars: Synchronizing (emptying the buffer of) trajectory file "out.colvars.traj".
colvars: Saving collective variables state to "rest.colvars.state".
      88.194    433.76035    47383.705    48034.323    2.1862165    5936885.4 
colvars: Synchronizing (emptying the buffer of) trajectory file "out.colvars.traj".
colvars: Saving collective variables state to "rest.colvars.state".
      88.794    426.85782    46621.618    47261.884    2.1681946    5893246.1 
colvars: Synchronizing (emptying the buffer of) trajectory file "out.colvars.traj".
colvars: Saving collective variables state to "rest.colvars.state".
      89.394    419.86645    45871.761    46501.539    2.1907123    5736107.4 
colvars: Synchronizing (emptying the buffer of) trajectory file "out.colvars.traj".
colvars: Saving collective variables state to "rest.colvars.state".
      89.994    413.03097    45134.102    45753.628    2.1503438    5748504.8 
colvars: Synchronizing (emptying the buffer of) trajectory file "out.colvars.traj".
colvars: Saving collective variables state to "rest.colvars.state".
      90.594    406.39615    44408.377    45017.951     2.130369    5708525.2 
colvars: Synchronizing (emptying the buffer of) trajectory file "out.colvars.traj".
colvars: Saving collective variables state to "rest.colvars.state".
      91.194     399.9752    43694.228    44294.171    2.1231743    5636704.8 
colvars: Synchronizing (emptying the buffer of) trajectory file "out.colvars.traj".
colvars: Saving collective variables state to "rest.colvars.state".
      91.794    393.50056    42991.531    43581.762    2.1248768    5544362.7 
colvars: Synchronizing (emptying the buffer of) trajectory file "out.colvars.traj".
colvars: Saving collective variables state to "rest.colvars.state".
      92.394    387.24041    42300.165    42881.006    2.0355684    5693174.5 
colvars: Synchronizing (emptying the buffer of) trajectory file "out.colvars.traj".
colvars: Saving collective variables state to "rest.colvars.state".
      92.994    381.09687     41619.88    42191.507    1.9123592    5964077.4 
colvars: Synchronizing (emptying the buffer of) trajectory file "out.colvars.traj".
colvars: Saving collective variables state to "rest.colvars.state".
      93.594    375.06786    40950.542    41513.125    1.8569515    6044903.8 
colvars: Synchronizing (emptying the buffer of) trajectory file "out.colvars.traj".
colvars: Saving collective variables state to "rest.colvars.state".
      94.194    368.67267    40292.052    40845.042    1.9675907    5606061.1 
colvars: Synchronizing (emptying the buffer of) trajectory file "out.colvars.traj".
colvars: Saving collective variables state to "rest.colvars.state".
      94.794    362.86114    39644.222    40188.495    1.9662646    5520268.8 
colvars: Synchronizing (emptying the buffer of) trajectory file "out.colvars.traj".
colvars: Saving collective variables state to "rest.colvars.state".
      95.394    356.97056    39006.881    39542.319    1.9437363    5493232.5 
colvars: Synchronizing (emptying the buffer of) trajectory file "out.colvars.traj".
colvars: Saving collective variables state to "rest.colvars.state".
      95.994    351.13083    38379.812     38906.49     1.968821    5335469.2 
colvars: Synchronizing (emptying the buffer of) trajectory file "out.colvars.traj".
colvars: Saving collective variables state to "rest.colvars.state".
      96.594    345.69943    37762.787    38281.319    1.9161551    5398567.7 
colvars: Synchronizing (emptying the buffer of) trajectory file "out.colvars.traj".
colvars: Saving collective variables state to "rest.colvars.state".
      97.194    340.38365    37155.537    37666.095     1.880093    5415472.1 
colvars: Synchronizing (emptying the buffer of) trajectory file "out.colvars.traj".
colvars: Saving collective variables state to "rest.colvars.state".
      97.794    334.79645    36558.004    37060.182    1.9107936      5241048 
colvars: Synchronizing (emptying the buffer of) trajectory file "out.colvars.traj".
colvars: Saving collective variables state to "rest.colvars.state".
      98.394    329.50749      35970.1    36464.345    1.8927082    5207712.4 
colvars: Synchronizing (emptying the buffer of) trajectory file "out.colvars.traj".
colvars: Saving collective variables state to "rest.colvars.state".
      98.994     324.1357    35391.643     35877.83    1.8917664    5126201.8 
colvars: Synchronizing (emptying the buffer of) trajectory file "out.colvars.traj".
colvars: Saving collective variables state to "rest.colvars.state".
      99.594    318.67656    34822.636    35300.635    1.9013458    5011941.1 
colvars: Synchronizing (emptying the buffer of) trajectory file "out.colvars.traj".
colvars: Saving collective variables state to "rest.colvars.state".
     100.194    313.91506    34262.733     34733.59    1.8281336    5134536.9 
colvars: Synchronizing (emptying the buffer of) trajectory file "out.colvars.traj".
colvars: Saving collective variables state to "rest.colvars.state".
     100.794    308.76552    33711.787     34174.92    1.8541371    4979349.3 
colvars: Synchronizing (emptying the buffer of) trajectory file "out.colvars.traj".
colvars: Saving collective variables state to "rest.colvars.state".
     101.394    303.97908    33169.641    33625.595    1.8376018    4946285.3 
colvars: Synchronizing (emptying the buffer of) trajectory file "out.colvars.traj".
colvars: Saving collective variables state to "rest.colvars.state".
     101.994    298.94414    32636.281    33084.682    1.8299067    4885634.3 
colvars: Synchronizing (emptying the buffer of) trajectory file "out.colvars.traj".
colvars: Saving collective variables state to "rest.colvars.state".
     102.594    294.17676     32111.56     32552.81    1.8223856    4828847.6 
colvars: Synchronizing (emptying the buffer of) trajectory file "out.colvars.traj".
colvars: Saving collective variables state to "rest.colvars.state".
     103.194    289.52724    31595.226    32029.502    1.7764505    4873563.1 
colvars: Synchronizing (emptying the buffer of) trajectory file "out.colvars.traj".
colvars: Saving collective variables state to "rest.colvars.state".
     103.794    284.76525    31087.234    31514.368    1.7553474    4850197.7 
colvars: Synchronizing (emptying the buffer of) trajectory file "out.colvars.traj".
colvars: Saving collective variables state to "rest.colvars.state".
     104.394    280.16104    30587.444    31007.671    1.7456181    4797869.6 
colvars: Synchronizing (emptying the buffer of) trajectory file "out.colvars.traj".
colvars: Saving collective variables state to "rest.colvars.state".
     104.994    275.72213    30095.787    30509.357    1.7344212    4751270.4 
colvars: Synchronizing (emptying the buffer of) trajectory file "out.colvars.traj".
colvars: Saving collective variables state to "rest.colvars.state".
     105.594    271.24867    29611.968    30018.827    1.7341269    4675424.9 
colvars: Synchronizing (emptying the buffer of) trajectory file "out.colvars.traj".
colvars: Saving collective variables state to "rest.colvars.state".
     106.194    266.91016    29135.897    29536.249    1.6620463    4800578.5 
colvars: Synchronizing (emptying the buffer of) trajectory file "out.colvars.traj".
colvars: Saving collective variables state to "rest.colvars.state".
     106.794    262.60848    28667.559    29061.459    1.6333039    4806029.8 
colvars: Synchronizing (emptying the buffer of) trajectory file "out.colvars.traj".
colvars: Saving collective variables state to "rest.colvars.state".
     107.394    258.36028     28206.71    28594.237    1.5788305    4891300.6 
colvars: Synchronizing (emptying the buffer of) trajectory file "out.colvars.traj".
colvars: Saving collective variables state to "rest.colvars.state".
     107.994    254.12398    27753.425    28134.598    1.5911424    4772773.9 
colvars: Synchronizing (emptying the buffer of) trajectory file "out.colvars.traj".
colvars: Saving collective variables state to "rest.colvars.state".
     108.594    250.09318    27307.389    27682.516    1.5481674    4828527.2 
colvars: Synchronizing (emptying the buffer of) trajectory file "out.colvars.traj".
colvars: Saving collective variables state to "rest.colvars.state".
     109.194    246.13527    26868.483    27237.673    1.5754675    4670803.5 
colvars: Synchronizing (emptying the buffer of) trajectory file "out.colvars.traj".
colvars: Saving collective variables state to "rest.colvars.state".
     109.794    242.19704    26436.662    26799.946    1.6318419    4434133.8 
colvars: Synchronizing (emptying the buffer of) trajectory file "out.colvars.traj".
colvars: Saving collective variables state to "rest.colvars.state".
     110.394    238.23945     26011.77    26369.117     1.610843    4422480.7 
colvars: Synchronizing (emptying the buffer of) trajectory file "out.colvars.traj".
colvars: Saving collective variables state to "rest.colvars.state".
     110.994    234.43799    25593.791    25945.437    1.4932072    4691183.6 
colvars: Synchronizing (emptying the buffer of) trajectory file "out.colvars.traj".
colvars: Saving collective variables state to "rest.colvars.state".
     111.594    230.90472    25182.391    25528.736    1.4555572      4739692 
colvars: Synchronizing (emptying the buffer of) trajectory file "out.colvars.traj".
colvars: Saving collective variables state to "rest.colvars.state".
     112.194    227.11653    24777.545    25118.209    1.4762274    4596064.1 
colvars: Synchronizing (emptying the buffer of) trajectory file "out.colvars.traj".
colvars: Saving collective variables state to "rest.colvars.state".
     112.794    223.45562    24379.222    24714.394    1.4856447    4493880.7 
colvars: Synchronizing (emptying the buffer of) trajectory file "out.colvars.traj".
colvars: Saving collective variables state to "rest.colvars.state".
     113.394    219.99847    23987.379    24317.365    1.4505672    4530524.2 
colvars: Synchronizing (emptying the buffer of) trajectory file "out.colvars.traj".
colvars: Saving collective variables state to "rest.colvars.state".
     113.994    216.29219    23601.795    23926.223    1.4359764    4497925.5 
colvars: Synchronizing (emptying the buffer of) trajectory file "out.colvars.traj".
colvars: Saving collective variables state to "rest.colvars.state".
     114.594    212.94072    23222.439     23541.84    1.4739057      4315943 
colvars: Synchronizing (emptying the buffer of) trajectory file "out.colvars.traj".
colvars: Saving collective variables state to "rest.colvars.state".
     115.194    209.55409    22849.152    23163.473    1.4562318    4298170.8 
colvars: Synchronizing (emptying the buffer of) trajectory file "out.colvars.traj".
colvars: Saving collective variables state to "rest.colvars.state".
     115.794     206.1853    22481.858    22791.126     1.396848    4407373.8 
colvars: Synchronizing (emptying the buffer of) trajectory file "out.colvars.traj".
colvars: Saving collective variables state to "rest.colvars.state".
     116.394    202.88858    22120.498    22424.821    1.3645444    4438907.9 
colvars: Synchronizing (emptying the buffer of) trajectory file "out.colvars.traj".
colvars: Saving collective variables state to "rest.colvars.state".
     116.994    199.76056    21764.889     22064.52    1.3655453    4367017.1 
colvars: Synchronizing (emptying the buffer of) trajectory file "out.colvars.traj".
colvars: Saving collective variables state to "rest.colvars.state".
     117.594    196.43094     21414.98    21709.616    1.3808134    4248606.7 
colvars: Synchronizing (emptying the buffer of) trajectory file "out.colvars.traj".
colvars: Saving collective variables state to "rest.colvars.state".
     118.194    193.18809     21070.81    21360.582    1.3835233    4169707.5 
colvars: Synchronizing (emptying the buffer of) trajectory file "out.colvars.traj".
colvars: Saving collective variables state to "rest.colvars.state".
     118.794    190.17305    20732.182    21017.432    1.3551534    4189606.8 
colvars: Synchronizing (emptying the buffer of) trajectory file "out.colvars.traj".
colvars: Saving collective variables state to "rest.colvars.state".
     119.394    187.21423    20398.934    20679.746    1.3285677    4207297.6 
colvars: Synchronizing (emptying the buffer of) trajectory file "out.colvars.traj".
colvars: Saving collective variables state to "rest.colvars.state".
     119.994     184.1858    20071.062    20347.331    1.3122714    4191407.7 
colvars: Synchronizing (emptying the buffer of) trajectory file "out.colvars.traj".
colvars: Saving collective variables state to "rest.colvars.state".
     120.594    181.27458    19748.429    20020.331    1.3032411    4150630.5 
colvars: Synchronizing (emptying the buffer of) trajectory file "out.colvars.traj".
colvars: Saving collective variables state to "rest.colvars.state".
     121.194    178.21846    19431.062    19698.381    1.3020474    4084764.1 
colvars: Synchronizing (emptying the buffer of) trajectory file "out.colvars.traj".
colvars: Saving collective variables state to "rest.colvars.state".
     121.794    175.38972    19118.807    19381.883    1.3089899    3995148.4 
colvars: Synchronizing (emptying the buffer of) trajectory file "out.colvars.traj".
colvars: Saving collective variables state to "rest.colvars.state".
     122.394    172.62205    18811.633    19070.558    1.2835157    4013122.8 
colvars: Synchronizing (emptying the buffer of) trajectory file "out.colvars.traj".
colvars: Saving collective variables state to "rest.colvars.state".
     122.994    169.90504    18509.281     18764.13    1.2847692    3946022.4 
colvars: Synchronizing (emptying the buffer of) trajectory file "out.colvars.traj".
colvars: Saving collective variables state to "rest.colvars.state".
     123.594    167.28103     18211.75    18462.663    1.2345497    4040062.3 
colvars: Synchronizing (emptying the buffer of) trajectory file "out.colvars.traj".
colvars: Saving collective variables state to "rest.colvars.state".
     124.194    164.54723    17919.038    18165.851    1.2066364    4068408.4 
colvars: Synchronizing (emptying the buffer of) trajectory file "out.colvars.traj".
colvars: Saving collective variables state to "rest.colvars.state".
     124.794    161.85102    17631.068    17873.837    1.1907696      4054667 
colvars: Synchronizing (emptying the buffer of) trajectory file "out.colvars.traj".
colvars: Saving collective variables state to "rest.colvars.state".
     125.394     159.3403    17347.718    17586.721    1.2329527    3855390.9 
colvars: Synchronizing (emptying the buffer of) trajectory file "out.colvars.traj".
colvars: Saving collective variables state to "rest.colvars.state".
     125.994    156.77878    17068.953    17304.113    1.2021961    3888082.3 
colvars: Synchronizing (emptying the buffer of) trajectory file "out.colvars.traj".
colvars: Saving collective variables state to "rest.colvars.state".
     126.594    154.23365    16794.653    17025.996      1.23219    3733285.9 
colvars: Synchronizing (emptying the buffer of) trajectory file "out.colvars.traj".
colvars: Saving collective variables state to "rest.colvars.state".
     127.194    151.71014    16524.823    16752.381    1.2185892    3713534.3 
colvars: Synchronizing (emptying the buffer of) trajectory file "out.colvars.traj".
colvars: Saving collective variables state to "rest.colvars.state".
     127.794    149.33931    16259.329    16483.331    1.1937516      3730186 
colvars: Synchronizing (emptying the buffer of) trajectory file "out.colvars.traj".
colvars: Saving collective variables state to "rest.colvars.state".
     128.394    147.01806    15998.042    16218.562    1.2208121    3591150.8 
colvars: Synchronizing (emptying the buffer of) trajectory file "out.colvars.traj".
colvars: Saving collective variables state to "rest.colvars.state".
     128.994     144.7188    15740.916    15957.987    1.1935153    3613857.8 
colvars: Synchronizing (emptying the buffer of) trajectory file "out.colvars.traj".
colvars: Saving collective variables state to "rest.colvars.state".
     129.594    142.35087    15487.912    15701.431    1.2168714    3486499.3 
colvars: Synchronizing (emptying the buffer of) trajectory file "out.colvars.traj".
colvars: Saving collective variables state to "rest.colvars.state".
     130.194    140.14764    15238.974    15449.188    1.1956452    3492928.6 
colvars: Synchronizing (emptying the buffer of) trajectory file "out.colvars.traj".
colvars: Saving collective variables state to "rest.colvars.state".
     130.794    137.90405    14994.007    15200.856    1.1523505    3563739.2 
colvars: Synchronizing (emptying the buffer of) trajectory file "out.colvars.traj".
colvars: Saving collective variables state to "rest.colvars.state".
     131.394    135.65133    14753.048    14956.518     1.103632    3662853.8 
colvars: Synchronizing (emptying the buffer of) trajectory file "out.colvars.traj".
colvars: Saving collective variables state to "rest.colvars.state".
     131.994     133.3298    14516.052     14716.04    1.1232948    3537876.5 
colvars: Synchronizing (emptying the buffer of) trajectory file "out.colvars.traj".
colvars: Saving collective variables state to "rest.colvars.state".
     132.594    131.29942    14282.862    14479.805    1.1180156    3498776.6 
colvars: Synchronizing (emptying the buffer of) trajectory file "out.colvars.traj".
colvars: Saving collective variables state to "rest.colvars.state".
     133.194    129.20431    14053.397    14247.197     1.151935    3339961.6 
colvars: Synchronizing (emptying the buffer of) trajectory file "out.colvars.traj".
colvars: Saving collective variables state to "rest.colvars.state".
     133.794    127.11888    13827.597    14018.269    1.1596544    3264812.2 
colvars: Synchronizing (emptying the buffer of) trajectory file "out.colvars.traj".
colvars: Saving collective variables state to "rest.colvars.state".
     134.394    125.10427    13605.424    13793.074    1.1060669    3369752.2 
colvars: Synchronizing (emptying the buffer of) trajectory file "out.colvars.traj".
colvars: Saving collective variables state to "rest.colvars.state".
     134.994    123.08152    13386.876    13571.492    1.0399884    3523792.3 
colvars: Synchronizing (emptying the buffer of) trajectory file "out.colvars.traj".
colvars: Saving collective variables state to "rest.colvars.state".
     135.594    121.09124    13171.847    13353.477    1.0007566    3602421.7 
colvars: Synchronizing (emptying the buffer of) trajectory file "out.colvars.traj".
colvars: Saving collective variables state to "rest.colvars.state".
     136.194    119.13631    12960.302    13139.001      1.00517    3524841.1 
colvars: Synchronizing (emptying the buffer of) trajectory file "out.colvars.traj".
colvars: Saving collective variables state to "rest.colvars.state".
     136.794    117.29592    12752.204    12928.142    1.0006824    3488686.5 
colvars: Synchronizing (emptying the buffer of) trajectory file "out.colvars.traj".
colvars: Saving collective variables state to "rest.colvars.state".
     137.394    115.46285    12547.392     12720.58   0.97686015    3518090.1 
colvars: Synchronizing (emptying the buffer of) trajectory file "out.colvars.traj".
colvars: Saving collective variables state to "rest.colvars.state".
     137.994    113.48947    12345.885    12516.114   0.97934936    3447486.4 
colvars: Synchronizing (emptying the buffer of) trajectory file "out.colvars.traj".
colvars: Saving collective variables state to "rest.colvars.state".
     138.594     111.6768    12147.711    12315.221   0.95593779      3472934 
colvars: Synchronizing (emptying the buffer of) trajectory file "out.colvars.traj".
colvars: Saving collective variables state to "rest.colvars.state".
     139.194    110.03197    11952.635    12117.677   0.99844122    3277580.1 
colvars: Synchronizing (emptying the buffer of) trajectory file "out.colvars.traj".
colvars: Saving collective variables state to "rest.colvars.state".
     139.794    108.25181    11760.605    11922.977   0.99050064    3250666.5 
colvars: Synchronizing (emptying the buffer of) trajectory file "out.colvars.traj".
colvars: Saving collective variables state to "rest.colvars.state".
     140.394     106.4601    11571.754    11731.439   0.95631145    3308726.5 
colvars: Synchronizing (emptying the buffer of) trajectory file "out.colvars.traj".
colvars: Saving collective variables state to "rest.colvars.state".
     140.994     104.6762    11385.973    11542.982    0.9649558    3223501.6 
colvars: Synchronizing (emptying the buffer of) trajectory file "out.colvars.traj".
colvars: Saving collective variables state to "rest.colvars.state".
     141.594    103.01873    11203.246    11357.769   0.94131149    3254422.7 
colvars: Synchronizing (emptying the buffer of) trajectory file "out.colvars.traj".
colvars: Saving collective variables state to "rest.colvars.state".
     142.194    101.43901    11023.448    11175.601   0.95654252    3152935.2 
colvars: Synchronizing (emptying the buffer of) trajectory file "out.colvars.traj".
colvars: Saving collective variables state to "rest.colvars.state".
     142.794     99.87014    10846.447    10996.248   0.95535408    3107136.7 
colvars: Synchronizing (emptying the buffer of) trajectory file "out.colvars.traj".
colvars: Saving collective variables state to "rest.colvars.state".
     143.394    98.357699    10672.289    10819.821   0.90008499    3248566.1 
colvars: Synchronizing (emptying the buffer of) trajectory file "out.colvars.traj".
colvars: Saving collective variables state to "rest.colvars.state".
     143.994    96.767315    10500.853    10645.999   0.89873706    3200606.9 
colvars: Synchronizing (emptying the buffer of) trajectory file "out.colvars.traj".
colvars: Saving collective variables state to "rest.colvars.state".
     144.594    95.241702    10332.196    10475.054   0.90400979    3131302.7 
colvars: Synchronizing (emptying the buffer of) trajectory file "out.colvars.traj".
colvars: Saving collective variables state to "rest.colvars.state".
     145.194    93.758051    10166.264    10306.896   0.91787299    3036553.7 
colvars: Synchronizing (emptying the buffer of) trajectory file "out.colvars.traj".
colvars: Saving collective variables state to "rest.colvars.state".
     145.794     92.30148    10002.969    10141.417   0.88327785    3107510.6 
colvars: Synchronizing (emptying the buffer of) trajectory file "out.colvars.traj".
colvars: Saving collective variables state to "rest.colvars.state".
     146.394    90.859744     9842.277    9978.5621   0.87767611    3075339.6 
colvars: Synchronizing (emptying the buffer of) trajectory file "out.colvars.traj".
colvars: Saving collective variables state to "rest.colvars.state".
     146.994    89.369413    9684.2072    9818.2569   0.88200707    3009481.2 
colvars: Synchronizing (emptying the buffer of) trajectory file "out.colvars.traj".
colvars: Saving collective variables state to "rest.colvars.state".
     147.594    87.860753    9528.6879    9660.4747   0.88041013    2961145.9 
colvars: Synchronizing (emptying the buffer of) trajectory file "out.colvars.traj".
colvars: Saving collective variables state to "rest.colvars.state".
     148.194    86.430647    9375.7277    9505.3694   0.88122846    2910926.2 
colvars: Synchronizing (emptying the buffer of) trajectory file "out.colvars.traj".
colvars: Saving collective variables state to "rest.colvars.state".
     148.794    85.104654     9225.203    9352.8557   0.86912863    2906677.6 
colvars: Synchronizing (emptying the buffer of) trajectory file "out.colvars.traj".
colvars: Saving collective variables state to "rest.colvars.state".
     149.394    83.802568    9077.0982    9202.7979   0.87568935    2840421.3 
colvars: Synchronizing (emptying the buffer of) trajectory file "out.colvars.traj".
colvars: Saving collective variables state to "rest.colvars.state".
     149.994    82.420003    8931.3635    9054.9894   0.84369929    2898146.8 
colvars: Synchronizing (emptying the buffer of) trajectory file "out.colvars.traj".
colvars: Saving collective variables state to "rest.colvars.state".
     150.594    81.055729    8787.9846    8909.5641   0.87046143      2764915 
colvars: Synchronizing (emptying the buffer of) trajectory file "out.colvars.traj".
colvars: Saving collective variables state to "rest.colvars.state".
     151.194    79.830645    8646.9262    8766.6681   0.85635511    2765591.1 
colvars: Synchronizing (emptying the buffer of) trajectory file "out.colvars.traj".
colvars: Saving collective variables state to "rest.colvars.state".
     151.794    78.470393    8508.1736    8625.8752   0.83812889    2774762.4 
colvars: Synchronizing (emptying the buffer of) trajectory file "out.colvars.traj".
colvars: Saving collective variables state to "rest.colvars.state".
     152.394    77.322916    8371.6183    8487.5988   0.83149055    2761456.9 
colvars: Synchronizing (emptying the buffer of) trajectory file "out.colvars.traj".
colvars: Saving collective variables state to "rest.colvars.state".
     152.994    76.070932    8237.2602    8351.3628   0.82483017    2732186.3 
colvars: Synchronizing (emptying the buffer of) trajectory file "out.colvars.traj".
colvars: Saving collective variables state to "rest.colvars.state".
     153.594    74.820028    8105.0456    8217.2719   0.82226814    2692721.8 
colvars: Synchronizing (emptying the buffer of) trajectory file "out.colvars.traj".
colvars: Saving collective variables state to "rest.colvars.state".
     154.194    73.628984    7974.9893    8085.4291   0.81740646    2663949.3 
colvars: Synchronizing (emptying the buffer of) trajectory file "out.colvars.traj".
colvars: Saving collective variables state to "rest.colvars.state".
     154.794    72.395352    7847.0789    7955.6683   0.79431918    2696857.5 
colvars: Synchronizing (emptying the buffer of) trajectory file "out.colvars.traj".
colvars: Saving collective variables state to "rest.colvars.state".
     155.394    71.298734    7721.2202    7828.1648   0.76836308    2743638.3 
colvars: Synchronizing (emptying the buffer of) trajectory file "out.colvars.traj".
colvars: Saving collective variables state to "rest.colvars.state".
     155.994    70.089627    7597.4018    7702.5328   0.75407848      2751359 
colvars: Synchronizing (emptying the buffer of) trajectory file "out.colvars.traj".
colvars: Saving collective variables state to "rest.colvars.state".
     156.594    69.065301    7475.5957    7579.1902   0.75338007    2716858.9 
colvars: Synchronizing (emptying the buffer of) trajectory file "out.colvars.traj".
colvars: Saving collective variables state to "rest.colvars.state".
     157.194    67.947812    7355.7087     7457.627   0.75078741    2680935.9 
colvars: Synchronizing (emptying the buffer of) trajectory file "out.colvars.traj".
colvars: Saving collective variables state to "rest.colvars.state".
     157.794    66.836954    7237.7693    7338.0214   0.72625051    2722830.5 
colvars: Synchronizing (emptying the buffer of) trajectory file "out.colvars.traj".
colvars: Saving collective variables state to "rest.colvars.state".
     158.394    65.885476    7121.6994    7220.5243   0.71565103    2725170.8 
colvars: Synchronizing (emptying the buffer of) trajectory file "out.colvars.traj".
colvars: Saving collective variables state to "rest.colvars.state".
     158.994    64.801242    7007.4621    7104.6608   0.70219821    2728894.9 
colvars: Synchronizing (emptying the buffer of) trajectory file "out.colvars.traj".
colvars: Saving collective variables state to "rest.colvars.state".
     159.594    63.722001    6895.0802      6990.66   0.71610699    2631513.2 
colvars: Synchronizing (emptying the buffer of) trajectory file "out.colvars.traj".
colvars: Saving collective variables state to "rest.colvars.state".
     160.194    62.701368    6784.5128    6878.5617   0.71117675    2604830.2 
colvars: Synchronizing (emptying the buffer of) trajectory file "out.colvars.traj".
colvars: Saving collective variables state to "rest.colvars.state".
     160.794    61.796518    6675.7264    6768.4181   0.73249541    2493845.4 
colvars: Synchronizing (emptying the buffer of) trajectory file "out.colvars.traj".
colvars: Saving collective variables state to "rest.colvars.state".
     161.394    60.853322    6568.6397    6659.9166   0.72622942    2475082.9 
colvars: Synchronizing (emptying the buffer of) trajectory file "out.colvars.traj".
colvars: Saving collective variables state to "rest.colvars.state".
     161.994    59.848815    6463.2698      6553.04   0.73627298    2398679.9 
colvars: Synchronizing (emptying the buffer of) trajectory file "out.colvars.traj".
colvars: Saving collective variables state to "rest.colvars.state".
     162.594    58.901016    6359.6321    6447.9806   0.71531243    2432371.4 
colvars: Synchronizing (emptying the buffer of) trajectory file "out.colvars.traj".
colvars: Saving collective variables state to "rest.colvars.state".
     163.194    58.020274    6257.6241    6344.6516   0.71483826    2399980.1 
colvars: Synchronizing (emptying the buffer of) trajectory file "out.colvars.traj".
colvars: Saving collective variables state to "rest.colvars.state".
     163.794    57.119346     6157.228    6242.9041   0.70892129    2374679.4 
colvars: Synchronizing (emptying the buffer of) trajectory file "out.colvars.traj".
colvars: Saving collective variables state to "rest.colvars.state".
     164.394    56.155227    6058.4817    6142.7118   0.69010214    2399905.5 
colvars: Synchronizing (emptying the buffer of) trajectory file "out.colvars.traj".
colvars: Saving collective variables state to "rest.colvars.state".
     164.994    55.233247    5961.3507    6044.1978   0.68525837    2377643.7 
colvars: Synchronizing (emptying the buffer of) trajectory file "out.colvars.traj".
colvars: Saving collective variables state to "rest.colvars.state".
     165.594    54.446081     5865.779    5947.4454   0.69989698    2297349.8 
colvars: Synchronizing (emptying the buffer of) trajectory file "out.colvars.traj".
colvars: Saving collective variables state to "rest.colvars.state".
     166.194    53.566988    5771.7037    5852.0515   0.68284574    2308418.1 
colvars: Synchronizing (emptying the buffer of) trajectory file "out.colvars.traj".
colvars: Saving collective variables state to "rest.colvars.state".
     166.794    52.741751    5679.1547    5758.2647   0.64904575    2393484.2 
colvars: Synchronizing (emptying the buffer of) trajectory file "out.colvars.traj".
colvars: Saving collective variables state to "rest.colvars.state".
     167.394    51.845562    5588.0762     5665.842   0.67006508    2282257.4 
colvars: Synchronizing (emptying the buffer of) trajectory file "out.colvars.traj".
colvars: Saving collective variables state to "rest.colvars.state".
     167.994    51.003694    5498.5417    5575.0447   0.67315126    2233992.8 
colvars: Synchronizing (emptying the buffer of) trajectory file "out.colvars.traj".
colvars: Saving collective variables state to "rest.colvars.state".
     168.594     50.20823    5410.4539    5485.7638   0.66528343    2223371.9 
colvars: Synchronizing (emptying the buffer of) trajectory file "out.colvars.traj".
colvars: Saving collective variables state to "rest.colvars.state".
     169.194    49.443417    5323.7493    5397.9119   0.63314057      2300183 
colvars: Synchronizing (emptying the buffer of) trajectory file "out.colvars.traj".
colvars: Saving collective variables state to "rest.colvars.state".
     169.794    48.645338    5238.4491    5311.4147   0.62074704    2305682.9 
colvars: Synchronizing (emptying the buffer of) trajectory file "out.colvars.traj".
colvars: Saving collective variables state to "rest.colvars.state".
     170.394    47.900801     5154.522    5226.3708   0.62749695      2245223 
colvars: Synchronizing (emptying the buffer of) trajectory file "out.colvars.traj".
colvars: Saving collective variables state to "rest.colvars.state".
     170.994    47.156546    5071.9019    5142.6343   0.61930531    2241642.6 
colvars: Synchronizing (emptying the buffer of) trajectory file "out.colvars.traj".
colvars: Saving collective variables state to "rest.colvars.state".
     171.594    46.443267    4990.5912    5060.2537    0.6203744    2198017.3 
colvars: Synchronizing (emptying the buffer of) trajectory file "out.colvars.traj".
colvars: Saving collective variables state to "rest.colvars.state".
     172.194    45.678922    4910.6095    4979.1256   0.61367029    2186624.4 
colvars: Synchronizing (emptying the buffer of) trajectory file "out.colvars.traj".
colvars: Saving collective variables state to "rest.colvars.state".
     172.794    44.947713    4831.9317     4899.351   0.61256521    2156029.8 
colvars: Synchronizing (emptying the buffer of) trajectory file "out.colvars.traj".
colvars: Saving collective variables state to "rest.colvars.state".
     173.394    44.252365    4754.5406    4820.9169    0.6032506    2160487.4 
colvars: Synchronizing (emptying the buffer of) trajectory file "out.colvars.traj".
colvars: Saving collective variables state to "rest.colvars.state".
     173.994    43.599726    4678.3535    4743.7509   0.59139026      2167963 
colvars: Synchronizing (emptying the buffer of) trajectory file "out.colvars.traj".
colvars: Saving collective variables state to "rest.colvars.state".
     174.594    42.909239    4603.3609    4667.7226   0.58793518    2144496.5 
colvars: Synchronizing (emptying the buffer of) trajectory file "out.colvars.traj".
colvars: Saving collective variables state to "rest.colvars.state".
     175.194    42.218531    4529.6261    4592.9518   0.58479198    2120855.2 
colvars: Synchronizing (emptying the buffer of) trajectory file "out.colvars.traj".
colvars: Saving collective variables state to "rest.colvars.state".
     175.794     41.56396    4457.0442     4519.388   0.58012421    2097374.4 
colvars: Synchronizing (emptying the buffer of) trajectory file "out.colvars.traj".
colvars: Saving collective variables state to "rest.colvars.state".
     176.394    40.865578    4385.6314    4446.9277   0.58443774    2051625.3 
colvars: Synchronizing (emptying the buffer of) trajectory file "out.colvars.traj".
colvars: Saving collective variables state to "rest.colvars.state".
     176.994    40.232011    4315.4246    4375.7706   0.57509446    2047676.7 
colvars: Synchronizing (emptying the buffer of) trajectory file "out.colvars.traj".
colvars: Saving collective variables state to "rest.colvars.state".
     177.594    39.652026    4246.3189     4305.795   0.56372268    2066214.8 
colvars: Synchronizing (emptying the buffer of) trajectory file "out.colvars.traj".
colvars: Saving collective variables state to "rest.colvars.state".
     178.194    39.004059     4178.301    4236.8051   0.54531548    2096071.3 
colvars: Synchronizing (emptying the buffer of) trajectory file "out.colvars.traj".
colvars: Saving collective variables state to "rest.colvars.state".
     178.794    38.317565    4111.4303    4168.9048   0.54116219    2080500.2 
colvars: Synchronizing (emptying the buffer of) trajectory file "out.colvars.traj".
colvars: Saving collective variables state to "rest.colvars.state".
     179.394    37.686899    4045.6546     4102.183   0.53085827    2080068.3 
colvars: Synchronizing (emptying the buffer of) trajectory file "out.colvars.traj".
colvars: Saving collective variables state to "rest.colvars.state".
     179.994    37.140013     3980.944    4036.6522   0.51209761    2118035.7 
colvars: Synchronizing (emptying the buffer of) trajectory file "out.colvars.traj".
colvars: Saving collective variables state to "rest.colvars.state".
     180.594    36.573762     3917.256    3972.1148   0.52133395      2046771 
colvars: Synchronizing (emptying the buffer of) trajectory file "out.colvars.traj".
colvars: Saving collective variables state to "rest.colvars.state".
     181.194    36.013355    3854.5831    3908.6014   0.50742661    2077071.7 
colvars: Synchronizing (emptying the buffer of) trajectory file "out.colvars.traj".
colvars: Saving collective variables state to "rest.colvars.state".
     181.794    35.447198     3792.912     3846.081   0.50547687    2052566.3 
colvars: Synchronizing (emptying the buffer of) trajectory file "out.colvars.traj".
colvars: Saving collective variables state to "rest.colvars.state".
     182.394    34.923555    3732.2313    3784.6149   0.50150092    2031310.4 
colvars: Synchronizing (emptying the buffer of) trajectory file "out.colvars.traj".
colvars: Saving collective variables state to "rest.colvars.state".
     182.994    34.325004    3672.5334    3724.0191   0.50986554    1967279.7 
colvars: Synchronizing (emptying the buffer of) trajectory file "out.colvars.traj".
colvars: Saving collective variables state to "rest.colvars.state".
     183.594    33.832265    3613.7981    3664.5448   0.51207426    1936135.2 
colvars: Synchronizing (emptying the buffer of) trajectory file "out.colvars.traj".
colvars: Saving collective variables state to "rest.colvars.state".
     184.194    33.311935    3555.9944    3605.9607   0.52059518    1867856.7 
colvars: Synchronizing (emptying the buffer of) trajectory file "out.colvars.traj".
colvars: Saving collective variables state to "rest.colvars.state".
     184.794    32.722054    3499.1444    3548.2258   0.51100713      1867239 
colvars: Synchronizing (emptying the buffer of) trajectory file "out.colvars.traj".
colvars: Saving collective variables state to "rest.colvars.state".
     185.394    32.174633     3443.285    3491.5454   0.50420241    1863824.4 
colvars: Synchronizing (emptying the buffer of) trajectory file "out.colvars.traj".
colvars: Saving collective variables state to "rest.colvars.state".
[...]
     851.994    1.0013263    22.606866    24.108805   0.16317565    229049.63 
colvars: Synchronizing (emptying the buffer of) trajectory file "out.colvars.traj".
colvars: Saving collective variables state to "rest.colvars.state".
     852.594   0.99815472    22.602697     24.09988    0.1721224    227872.57 
colvars: Synchronizing (emptying the buffer of) trajectory file "out.colvars.traj".
colvars: Saving collective variables state to "rest.colvars.state".
     853.194    1.0015892    22.593134    24.095468   0.15114236       226793 
colvars: Synchronizing (emptying the buffer of) trajectory file "out.colvars.traj".
colvars: Saving collective variables state to "rest.colvars.state".
     853.794   0.99187929    22.602401    24.090171   0.18529626    225726.66 
colvars: Synchronizing (emptying the buffer of) trajectory file "out.colvars.traj".
colvars: Saving collective variables state to "rest.colvars.state".
     854.394    1.0089644    22.595128    24.108524   0.17632003    222122.66 
colvars: Synchronizing (emptying the buffer of) trajectory file "out.colvars.traj".
colvars: Saving collective variables state to "rest.colvars.state".
     854.994   0.99787368    22.602288    24.099049   0.17348676    224158.46 
colvars: Synchronizing (emptying the buffer of) trajectory file "out.colvars.traj".
colvars: Saving collective variables state to "rest.colvars.state".
     855.594    1.0068767    22.601854    24.112119   0.16397384    223190.15 
colvars: Synchronizing (emptying the buffer of) trajectory file "out.colvars.traj".
colvars: Saving collective variables state to "rest.colvars.state".
     856.194    1.0108274    22.598768    24.114959   0.17014447    225275.01 
colvars: Synchronizing (emptying the buffer of) trajectory file "out.colvars.traj".
colvars: Saving collective variables state to "rest.colvars.state".
     856.794    1.0066856     22.59309    24.103068   0.16611312    224844.45 
colvars: Synchronizing (emptying the buffer of) trajectory file "out.colvars.traj".
colvars: Saving collective variables state to "rest.colvars.state".
     857.394    1.0016438    22.595739    24.098155    0.1584362    219813.91 
colvars: Synchronizing (emptying the buffer of) trajectory file "out.colvars.traj".
colvars: Saving collective variables state to "rest.colvars.state".
     857.994   0.99181836    22.599715    24.087393   0.16569473    217703.69 
colvars: Synchronizing (emptying the buffer of) trajectory file "out.colvars.traj".
colvars: Saving collective variables state to "rest.colvars.state".
     858.594   0.99683791     22.60202    24.097227   0.16801107    218745.28 
colvars: Synchronizing (emptying the buffer of) trajectory file "out.colvars.traj".
colvars: Saving collective variables state to "rest.colvars.state".
     859.194    1.0084059    22.593434    24.105992   0.16468055    219297.45 
colvars: Synchronizing (emptying the buffer of) trajectory file "out.colvars.traj".
colvars: Saving collective variables state to "rest.colvars.state".
     859.794   0.99914745    22.607864    24.106536    0.1549331    218641.11 
colvars: Synchronizing (emptying the buffer of) trajectory file "out.colvars.traj".
colvars: Saving collective variables state to "rest.colvars.state".
     860.394    1.0066448    22.591666    24.101583   0.17733938    216282.33 
colvars: Synchronizing (emptying the buffer of) trajectory file "out.colvars.traj".
colvars: Saving collective variables state to "rest.colvars.state".
     860.994    1.0084848    22.592848    24.105525   0.17169686    211187.96 
colvars: Synchronizing (emptying the buffer of) trajectory file "out.colvars.traj".
colvars: Saving collective variables state to "rest.colvars.state".
     861.594    1.0016313    22.600517    24.102914   0.17941196    213474.24 
colvars: Synchronizing (emptying the buffer of) trajectory file "out.colvars.traj".
colvars: Saving collective variables state to "rest.colvars.state".
     862.194   0.99944853    22.600045    24.099168   0.17664026    217710.96 
colvars: Synchronizing (emptying the buffer of) trajectory file "out.colvars.traj".
colvars: Saving collective variables state to "rest.colvars.state".
     862.794   0.99920921    22.601566     24.10033   0.16381952    218903.57 
colvars: Synchronizing (emptying the buffer of) trajectory file "out.colvars.traj".
colvars: Saving collective variables state to "rest.colvars.state".
     863.394   0.99500125     22.59522    24.087672    0.1770494    217990.17 
colvars: Synchronizing (emptying the buffer of) trajectory file "out.colvars.traj".
colvars: Saving collective variables state to "rest.colvars.state".
     863.994   0.99745515     22.59434    24.090473   0.16124588    219379.96 
colvars: Synchronizing (emptying the buffer of) trajectory file "out.colvars.traj".
colvars: Saving collective variables state to "rest.colvars.state".
     864.594    1.0010537    22.592921    24.094452   0.16459407    220347.42 
colvars: Synchronizing (emptying the buffer of) trajectory file "out.colvars.traj".
colvars: Saving collective variables state to "rest.colvars.state".
     865.194   0.99849995    22.600936    24.098636   0.16203569    221517.24 
colvars: Synchronizing (emptying the buffer of) trajectory file "out.colvars.traj".
colvars: Saving collective variables state to "rest.colvars.state".
     865.794    0.9960303    22.601532    24.095527   0.16594825     220204.2 
colvars: Synchronizing (emptying the buffer of) trajectory file "out.colvars.traj".
colvars: Saving collective variables state to "rest.colvars.state".
     866.394   0.99624663     22.60494     24.09926   0.16431453    217110.72 
colvars: Synchronizing (emptying the buffer of) trajectory file "out.colvars.traj".
colvars: Saving collective variables state to "rest.colvars.state".
     866.994   0.99859873    22.605343    24.103191   0.16749721    222809.31 
colvars: Synchronizing (emptying the buffer of) trajectory file "out.colvars.traj".
colvars: Saving collective variables state to "rest.colvars.state".
     867.594   0.99973538    22.603361    24.102914   0.17298346    220933.28 
colvars: Synchronizing (emptying the buffer of) trajectory file "out.colvars.traj".
colvars: Saving collective variables state to "rest.colvars.state".
     868.194   0.99686687    22.610752    24.106002   0.17527815    225845.03 
colvars: Synchronizing (emptying the buffer of) trajectory file "out.colvars.traj".
colvars: Saving collective variables state to "rest.colvars.state".
     868.794    0.9947932     22.60952     24.10166   0.14994949     225687.9 
colvars: Synchronizing (emptying the buffer of) trajectory file "out.colvars.traj".
colvars: Saving collective variables state to "rest.colvars.state".
     869.394   0.99957781    22.604918    24.104235   0.15346543     226357.6 
colvars: Synchronizing (emptying the buffer of) trajectory file "out.colvars.traj".
colvars: Saving collective variables state to "rest.colvars.state".
     869.994     1.005931    22.607987    24.116833   0.16465988    228695.19 
colvars: Synchronizing (emptying the buffer of) trajectory file "out.colvars.traj".
colvars: Saving collective variables state to "rest.colvars.state".
     870.594    1.0100104    22.605218    24.120183   0.16010149    227765.21 
colvars: Synchronizing (emptying the buffer of) trajectory file "out.colvars.traj".
colvars: Saving collective variables state to "rest.colvars.state".
     871.194    1.0073135    22.606733    24.117653   0.16714203    229721.14 
colvars: Synchronizing (emptying the buffer of) trajectory file "out.colvars.traj".
colvars: Saving collective variables state to "rest.colvars.state".
     871.794    1.0040518    22.602762     24.10879   0.15389743    231783.11 
colvars: Synchronizing (emptying the buffer of) trajectory file "out.colvars.traj".
colvars: Saving collective variables state to "rest.colvars.state".
     872.394     1.005332    22.602036    24.109983   0.14778152    229794.37 
colvars: Synchronizing (emptying the buffer of) trajectory file "out.colvars.traj".
colvars: Saving collective variables state to "rest.colvars.state".
     872.994   0.99908875    22.605651    24.104234   0.17658733    226686.34 
colvars: Synchronizing (emptying the buffer of) trajectory file "out.colvars.traj".
colvars: Saving collective variables state to "rest.colvars.state".
     873.594    1.0029469    22.607747    24.112117   0.16548487    225879.25 
colvars: Synchronizing (emptying the buffer of) trajectory file "out.colvars.traj".
colvars: Saving collective variables state to "rest.colvars.state".
     874.194    1.0020409     22.60506    24.108071   0.17037039    227906.55 
colvars: Synchronizing (emptying the buffer of) trajectory file "out.colvars.traj".
colvars: Saving collective variables state to "rest.colvars.state".
     874.794   0.99560546    22.601011    24.094369   0.15387717    224811.94 
colvars: Synchronizing (emptying the buffer of) trajectory file "out.colvars.traj".
colvars: Saving collective variables state to "rest.colvars.state".
     875.394   0.99975003    22.592685     24.09226   0.16296427    229319.57 
colvars: Synchronizing (emptying the buffer of) trajectory file "out.colvars.traj".
colvars: Saving collective variables state to "rest.colvars.state".
     875.994   0.99939626    22.596724    24.095768   0.15493919    229938.12 
colvars: Synchronizing (emptying the buffer of) trajectory file "out.colvars.traj".
colvars: Saving collective variables state to "rest.colvars.state".
     876.594   0.99941798    22.604055    24.103132   0.16482888    227513.16 
colvars: Synchronizing (emptying the buffer of) trajectory file "out.colvars.traj".
colvars: Saving collective variables state to "rest.colvars.state".
     877.194    1.0130401     22.59495    24.114459   0.16907088    228179.92 
colvars: Synchronizing (emptying the buffer of) trajectory file "out.colvars.traj".
colvars: Saving collective variables state to "rest.colvars.state".
     877.794    1.0024224    22.605783    24.109366   0.16035525    228419.51 
colvars: Synchronizing (emptying the buffer of) trajectory file "out.colvars.traj".
colvars: Saving collective variables state to "rest.colvars.state".
     878.394    1.0000618    22.609622    24.109665      0.15863    230516.72 
colvars: Synchronizing (emptying the buffer of) trajectory file "out.colvars.traj".
colvars: Saving collective variables state to "rest.colvars.state".
     878.994    1.0021547    22.604266    24.107448   0.16260498    226502.98 
colvars: Synchronizing (emptying the buffer of) trajectory file "out.colvars.traj".
colvars: Saving collective variables state to "rest.colvars.state".
     879.594   0.99959773    22.600835    24.100181   0.16977213    226199.38 
colvars: Synchronizing (emptying the buffer of) trajectory file "out.colvars.traj".
colvars: Saving collective variables state to "rest.colvars.state".
     880.194   0.99630067    22.607327    24.101728   0.16358524    226896.66 
colvars: Synchronizing (emptying the buffer of) trajectory file "out.colvars.traj".
colvars: Saving collective variables state to "rest.colvars.state".
     880.794    1.0053018    22.603721    24.111624   0.16775028    224317.48 
colvars: Synchronizing (emptying the buffer of) trajectory file "out.colvars.traj".
colvars: Saving collective variables state to "rest.colvars.state".
     881.394    1.0019388    22.607704    24.110562   0.16856002    225788.23 
colvars: Synchronizing (emptying the buffer of) trajectory file "out.colvars.traj".
colvars: Saving collective variables state to "rest.colvars.state".
     881.994    1.0088533    22.590636    24.103866   0.17239021    228096.92 
colvars: Synchronizing (emptying the buffer of) trajectory file "out.colvars.traj".
colvars: Saving collective variables state to "rest.colvars.state".
     882.594    1.0038329     22.59798    24.103679   0.17002195    228007.88 
colvars: Synchronizing (emptying the buffer of) trajectory file "out.colvars.traj".
colvars: Saving collective variables state to "rest.colvars.state".
     883.194    1.0030813    22.596005    24.100577   0.13922769    227755.18 
colvars: Synchronizing (emptying the buffer of) trajectory file "out.colvars.traj".
colvars: Saving collective variables state to "rest.colvars.state".
     883.794    0.9968597    22.602932    24.098172   0.16304352    228284.11 
colvars: Synchronizing (emptying the buffer of) trajectory file "out.colvars.traj".
colvars: Saving collective variables state to "rest.colvars.state".
     884.394    1.0019942    22.600097    24.103038   0.16705765     225462.5 
colvars: Synchronizing (emptying the buffer of) trajectory file "out.colvars.traj".
colvars: Saving collective variables state to "rest.colvars.state".
     884.994    1.0006286    22.600117     24.10101   0.17607635    222552.69 
colvars: Synchronizing (emptying the buffer of) trajectory file "out.colvars.traj".
colvars: Saving collective variables state to "rest.colvars.state".
     885.594   0.99869816    22.595309    24.093306   0.17492291    219527.22 
colvars: Synchronizing (emptying the buffer of) trajectory file "out.colvars.traj".
colvars: Saving collective variables state to "rest.colvars.state".
     886.194   0.99869407    22.597056    24.095047   0.17342496    221540.99 
colvars: Synchronizing (emptying the buffer of) trajectory file "out.colvars.traj".
colvars: Saving collective variables state to "rest.colvars.state".
     886.794    1.0069961    22.598429    24.108873   0.16522732     222582.4 
colvars: Synchronizing (emptying the buffer of) trajectory file "out.colvars.traj".
colvars: Saving collective variables state to "rest.colvars.state".
     887.394    1.0103612    22.595742    24.111233   0.16212585    221942.05 
colvars: Synchronizing (emptying the buffer of) trajectory file "out.colvars.traj".
colvars: Saving collective variables state to "rest.colvars.state".
     887.994    1.0026687    22.591681    24.095634   0.15064199    225382.47 
colvars: Synchronizing (emptying the buffer of) trajectory file "out.colvars.traj".
colvars: Saving collective variables state to "rest.colvars.state".
     888.594   0.99228006    22.594654    24.083024   0.17145563    226002.85 
colvars: Synchronizing (emptying the buffer of) trajectory file "out.colvars.traj".
colvars: Saving collective variables state to "rest.colvars.state".
     889.194   0.99883404    22.597596    24.095798   0.15013641    224023.29 
colvars: Synchronizing (emptying the buffer of) trajectory file "out.colvars.traj".
colvars: Saving collective variables state to "rest.colvars.state".
     889.794     1.003311      22.5963    24.101216   0.17052862     224335.5 
colvars: Synchronizing (emptying the buffer of) trajectory file "out.colvars.traj".
colvars: Saving collective variables state to "rest.colvars.state".
     890.394   0.99509879    22.599201      24.0918   0.16226656    226687.01 
colvars: Synchronizing (emptying the buffer of) trajectory file "out.colvars.traj".
colvars: Saving collective variables state to "rest.colvars.state".
     890.994   0.99740879    22.595501    24.091564   0.16060623    220699.91 
colvars: Synchronizing (emptying the buffer of) trajectory file "out.colvars.traj".
colvars: Saving collective variables state to "rest.colvars.state".
     891.594     1.000665    22.601361    24.102308   0.17012697    220613.53 
colvars: Synchronizing (emptying the buffer of) trajectory file "out.colvars.traj".
colvars: Saving collective variables state to "rest.colvars.state".
     892.194    1.0089756    22.596383    24.109796   0.17084851    221449.93 
colvars: Synchronizing (emptying the buffer of) trajectory file "out.colvars.traj".
colvars: Saving collective variables state to "rest.colvars.state".
     892.794    1.0064476    22.595405    24.105026   0.15906516    223977.68 
colvars: Synchronizing (emptying the buffer of) trajectory file "out.colvars.traj".
colvars: Saving collective variables state to "rest.colvars.state".
     893.394   0.99463664    22.601696    24.093601   0.15814364       221994 
colvars: Synchronizing (emptying the buffer of) trajectory file "out.colvars.traj".
colvars: Saving collective variables state to "rest.colvars.state".
     893.994   0.99842262    22.587155    24.084739   0.16591937    226425.99 
colvars: Synchronizing (emptying the buffer of) trajectory file "out.colvars.traj".
colvars: Saving collective variables state to "rest.colvars.state".
     894.594    1.0002865    22.596005    24.096385   0.16879056    226866.07 
colvars: Synchronizing (emptying the buffer of) trajectory file "out.colvars.traj".
colvars: Saving collective variables state to "rest.colvars.state".
     895.194     1.003254    22.606392    24.111222   0.16727083    227107.72 
colvars: Synchronizing (emptying the buffer of) trajectory file "out.colvars.traj".
colvars: Saving collective variables state to "rest.colvars.state".
     895.794    1.0038753    22.592475    24.098238   0.16327879    227674.67 
colvars: Synchronizing (emptying the buffer of) trajectory file "out.colvars.traj".
colvars: Saving collective variables state to "rest.colvars.state".
     896.394    1.0065766    22.594019    24.103834   0.15944546    232376.73 
colvars: Synchronizing (emptying the buffer of) trajectory file "out.colvars.traj".
colvars: Saving collective variables state to "rest.colvars.state".
     896.994   0.99756848    22.594449    24.090752   0.15548211    236214.59 
colvars: Synchronizing (emptying the buffer of) trajectory file "out.colvars.traj".
colvars: Saving collective variables state to "rest.colvars.state".
     897.594   0.99961455    22.595777    24.095149   0.16316051    232112.33 
colvars: Synchronizing (emptying the buffer of) trajectory file "out.colvars.traj".
colvars: Saving collective variables state to "rest.colvars.state".
     898.194    1.0038806    22.600199    24.105969   0.15382806    228125.63 
colvars: Synchronizing (emptying the buffer of) trajectory file "out.colvars.traj".
colvars: Saving collective variables state to "rest.colvars.state".
     898.794   0.99416503    22.603823     24.09502   0.15783737    227910.78 
colvars: Synchronizing (emptying the buffer of) trajectory file "out.colvars.traj".
colvars: Saving collective variables state to "rest.colvars.state".
     899.394   0.99865201    22.601796    24.099724   0.16441864    225426.28 
colvars: Synchronizing (emptying the buffer of) trajectory file "out.colvars.traj".
colvars: Saving collective variables state to "rest.colvars.state".
     899.994   0.98836373    22.605949    24.088445   0.17005633    229673.48 
         900   0.99074376    22.600678    24.086744   0.16565883    229673.48 
colvars: Saving collective variables state to "out.colvars.state".
Loop time of 1562.51 on 1 procs for 150000 steps with 30000 atoms

Performance: 49766.225 tau/day, 96.000 timesteps/s
98.6% CPU use with 1 MPI tasks x no OpenMP threads

MPI task timing breakdown:
Section |  min time  |  avg time  |  max time  |%varavg| %total
---------------------------------------------------------------
Pair    | 85.618     | 85.618     | 85.618     |   0.0 |  5.48
Bond    | 71.734     | 71.734     | 71.734     |   0.0 |  4.59
Neigh   | 823.56     | 823.56     | 823.56     |   0.0 | 52.71
Comm    | 8.4874     | 8.4874     | 8.4874     |   0.0 |  0.54
Output  | 8.6738     | 8.6738     | 8.6738     |   0.0 |  0.56
Modify  | 540.34     | 540.34     | 540.34     |   0.0 | 34.58
Other   |            | 24.09      |            |       |  1.54

Nlocal:    30000 ave 30000 max 30000 min
Histogram: 1 0 0 0 0 0 0 0 0 0
Nghost:    0 ave 0 max 0 min
Histogram: 1 0 0 0 0 0 0 0 0 0
Neighs:    68489 ave 68489 max 68489 min
Histogram: 1 0 0 0 0 0 0 0 0 0

Total # of neighbors = 68489
Ave neighs/atom = 2.28297
Ave special neighs/atom = 5.9996
Neighbor list builds = 46703
Dangerous builds = 23469
colvars: Resetting the Collective Variables module.

Please see the log.cite file for references relevant to this simulation

Total wall time: 0:26:03
