Chromatin data file produced on: Fri Sep  7 00:45:54 2018

12000 atoms
11999 bonds
11998 angles

1 atom types
1 bond types
1 angle types

-12000.000000 12000.000000 xlo xhi
-12000.000000 12000.000000 ylo yhi
-12000.000000 12000.000000 zlo zhi

Masses

1 1

Atoms

1 1 1 0.0000  0.000000e+00  1.000000e+00  0.000000e+00 # coor
2 1 1 0.0000  0.000000e+00  2.000000e+00  0.000000e+00 # coor
3 1 1 0.0000  0.000000e+00  3.000000e+00  0.000000e+00 # coor
4 1 1 0.0000  0.000000e+00  4.000000e+00  0.000000e+00 # coor
5 1 1 0.0000  0.000000e+00  5.000000e+00  0.000000e+00 # coor
6 1 1 0.0000  0.000000e+00  6.000000e+00  0.000000e+00 # coor
7 1 1 0.0000  0.000000e+00  7.000000e+00  0.000000e+00 # coor
8 1 1 0.0000  0.000000e+00  8.000000e+00  0.000000e+00 # coor
9 1 1 0.0000  0.000000e+00  9.000000e+00  0.000000e+00 # coor
10 1 1 0.0000  0.000000e+00  1.000000e+01  0.000000e+00 # coor
11 1 1 0.0000  0.000000e+00  1.100000e+01  0.000000e+00 # coor
12 1 1 0.0000  0.000000e+00  1.200000e+01  0.000000e+00 # coor
13 1 1 0.0000  0.000000e+00  1.300000e+01  0.000000e+00 # coor
14 1 1 0.0000  0.000000e+00  1.400000e+01  0.000000e+00 # coor
15 1 1 0.0000  0.000000e+00  1.500000e+01  0.000000e+00 # coor
16 1 1 0.0000  0.000000e+00  1.600000e+01  0.000000e+00 # coor
17 1 1 0.0000  0.000000e+00  1.700000e+01  0.000000e+00 # coor
18 1 1 0.0000  0.000000e+00  1.800000e+01  0.000000e+00 # coor
19 1 1 0.0000  0.000000e+00  1.900000e+01  0.000000e+00 # coor
20 1 1 0.0000  0.000000e+00  2.000000e+01  0.000000e+00 # coor
21 1 1 0.0000  0.000000e+00  2.100000e+01  0.000000e+00 # coor
22 1 1 0.0000  0.000000e+00  2.200000e+01  0.000000e+00 # coor
23 1 1 0.0000  0.000000e+00  2.300000e+01  0.000000e+00 # coor
24 1 1 0.0000  0.000000e+00  2.400000e+01  0.000000e+00 # coor
25 1 1 0.0000  0.000000e+00  2.500000e+01  0.000000e+00 # coor
26 1 1 0.0000  0.000000e+00  2.600000e+01  0.000000e+00 # coor
27 1 1 0.0000  0.000000e+00  2.700000e+01  0.000000e+00 # coor
28 1 1 0.0000  0.000000e+00  2.800000e+01  0.000000e+00 # coor
29 1 1 0.0000  0.000000e+00  2.900000e+01  0.000000e+00 # coor
30 1 1 0.0000  0.000000e+00  3.000000e+01  0.000000e+00 # coor
31 1 1 0.0000  0.000000e+00  3.100000e+01  0.000000e+00 # coor
32 1 1 0.0000  0.000000e+00  3.200000e+01  0.000000e+00 # coor
33 1 1 0.0000  0.000000e+00  3.300000e+01  0.000000e+00 # coor
34 1 1 0.0000  0.000000e+00  3.400000e+01  0.000000e+00 # coor
35 1 1 0.0000  0.000000e+00  3.500000e+01  0.000000e+00 # coor
36 1 1 0.0000  0.000000e+00  3.600000e+01  0.000000e+00 # coor
37 1 1 0.0000  0.000000e+00  3.700000e+01  0.000000e+00 # coor
38 1 1 0.0000  0.000000e+00  3.800000e+01  0.000000e+00 # coor
39 1 1 0.0000  0.000000e+00  3.900000e+01  0.000000e+00 # coor
40 1 1 0.0000  0.000000e+00  4.000000e+01  0.000000e+00 # coor
41 1 1 0.0000  0.000000e+00  4.100000e+01  0.000000e+00 # coor
42 1 1 0.0000  0.000000e+00  4.200000e+01  0.000000e+00 # coor
43 1 1 0.0000  0.000000e+00  4.300000e+01  0.000000e+00 # coor
44 1 1 0.0000  0.000000e+00  4.400000e+01  0.000000e+00 # coor
45 1 1 0.0000  0.000000e+00  4.500000e+01  0.000000e+00 # coor
46 1 1 0.0000  0.000000e+00  4.600000e+01  0.000000e+00 # coor
47 1 1 0.0000  0.000000e+00  4.700000e+01  0.000000e+00 # coor
48 1 1 0.0000  0.000000e+00  4.800000e+01  0.000000e+00 # coor
49 1 1 0.0000  0.000000e+00  4.900000e+01  0.000000e+00 # coor
50 1 1 0.0000  0.000000e+00  5.000000e+01  0.000000e+00 # coor
51 1 1 0.0000  0.000000e+00  5.100000e+01  0.000000e+00 # coor
52 1 1 0.0000  0.000000e+00  5.200000e+01  0.000000e+00 # coor
53 1 1 0.0000  0.000000e+00  5.300000e+01  0.000000e+00 # coor
54 1 1 0.0000  0.000000e+00  5.400000e+01  0.000000e+00 # coor
55 1 1 0.0000  0.000000e+00  5.500000e+01  0.000000e+00 # coor
56 1 1 0.0000  0.000000e+00  5.600000e+01  0.000000e+00 # coor
57 1 1 0.0000  0.000000e+00  5.700000e+01  0.000000e+00 # coor
58 1 1 0.0000  0.000000e+00  5.800000e+01  0.000000e+00 # coor
59 1 1 0.0000  0.000000e+00  5.900000e+01  0.000000e+00 # coor
60 1 1 0.0000  0.000000e+00  6.000000e+01  0.000000e+00 # coor
61 1 1 0.0000  0.000000e+00  6.100000e+01  0.000000e+00 # coor
62 1 1 0.0000  0.000000e+00  6.200000e+01  0.000000e+00 # coor
63 1 1 0.0000  0.000000e+00  6.300000e+01  0.000000e+00 # coor
64 1 1 0.0000  0.000000e+00  6.400000e+01  0.000000e+00 # coor
65 1 1 0.0000  0.000000e+00  6.500000e+01  0.000000e+00 # coor
66 1 1 0.0000  0.000000e+00  6.600000e+01  0.000000e+00 # coor
67 1 1 0.0000  0.000000e+00  6.700000e+01  0.000000e+00 # coor
68 1 1 0.0000  0.000000e+00  6.800000e+01  0.000000e+00 # coor
69 1 1 0.0000  0.000000e+00  6.900000e+01  0.000000e+00 # coor
70 1 1 0.0000  0.000000e+00  7.000000e+01  0.000000e+00 # coor
71 1 1 0.0000  0.000000e+00  7.100000e+01  0.000000e+00 # coor
72 1 1 0.0000  0.000000e+00  7.200000e+01  0.000000e+00 # coor
73 1 1 0.0000  0.000000e+00  7.300000e+01  0.000000e+00 # coor
74 1 1 0.0000  0.000000e+00  7.400000e+01  0.000000e+00 # coor
75 1 1 0.0000  0.000000e+00  7.500000e+01  0.000000e+00 # coor
76 1 1 0.0000  0.000000e+00  7.600000e+01  0.000000e+00 # coor
77 1 1 0.0000  0.000000e+00  7.700000e+01  0.000000e+00 # coor
78 1 1 0.0000  0.000000e+00  7.800000e+01  0.000000e+00 # coor
79 1 1 0.0000  0.000000e+00  7.900000e+01  0.000000e+00 # coor
80 1 1 0.0000  0.000000e+00  8.000000e+01  0.000000e+00 # coor
81 1 1 0.0000  0.000000e+00  8.100000e+01  0.000000e+00 # coor
82 1 1 0.0000  0.000000e+00  8.200000e+01  0.000000e+00 # coor
83 1 1 0.0000  0.000000e+00  8.300000e+01  0.000000e+00 # coor
84 1 1 0.0000  0.000000e+00  8.400000e+01  0.000000e+00 # coor
85 1 1 0.0000  0.000000e+00  8.500000e+01  0.000000e+00 # coor
86 1 1 0.0000  0.000000e+00  8.600000e+01  0.000000e+00 # coor
87 1 1 0.0000  0.000000e+00  8.700000e+01  0.000000e+00 # coor
88 1 1 0.0000  0.000000e+00  8.800000e+01  0.000000e+00 # coor
89 1 1 0.0000  0.000000e+00  8.900000e+01  0.000000e+00 # coor
90 1 1 0.0000  0.000000e+00  9.000000e+01  0.000000e+00 # coor
91 1 1 0.0000  0.000000e+00  9.100000e+01  0.000000e+00 # coor
92 1 1 0.0000  0.000000e+00  9.200000e+01  0.000000e+00 # coor
93 1 1 0.0000  0.000000e+00  9.300000e+01  0.000000e+00 # coor
94 1 1 0.0000  0.000000e+00  9.400000e+01  0.000000e+00 # coor
95 1 1 0.0000  0.000000e+00  9.500000e+01  0.000000e+00 # coor
96 1 1 0.0000  0.000000e+00  9.600000e+01  0.000000e+00 # coor
97 1 1 0.0000  0.000000e+00  9.700000e+01  0.000000e+00 # coor
98 1 1 0.0000  0.000000e+00  9.800000e+01  0.000000e+00 # coor
99 1 1 0.0000  0.000000e+00  9.900000e+01  0.000000e+00 # coor
100 1 1 0.0000  0.000000e+00  1.000000e+02  0.000000e+00 # coor
101 1 1 0.0000  0.000000e+00  1.010000e+02  0.000000e+00 # coor
102 1 1 0.0000  0.000000e+00  1.020000e+02  0.000000e+00 # coor
103 1 1 0.0000  0.000000e+00  1.030000e+02  0.000000e+00 # coor
104 1 1 0.0000  0.000000e+00  1.040000e+02  0.000000e+00 # coor
105 1 1 0.0000  0.000000e+00  1.050000e+02  0.000000e+00 # coor
106 1 1 0.0000  0.000000e+00  1.060000e+02  0.000000e+00 # coor
107 1 1 0.0000  0.000000e+00  1.070000e+02  0.000000e+00 # coor
108 1 1 0.0000  0.000000e+00  1.080000e+02  0.000000e+00 # coor
109 1 1 0.0000  0.000000e+00  1.090000e+02  0.000000e+00 # coor
110 1 1 0.0000  0.000000e+00  1.100000e+02  0.000000e+00 # coor
111 1 1 0.0000  0.000000e+00  1.110000e+02  0.000000e+00 # coor
112 1 1 0.0000  0.000000e+00  1.120000e+02  0.000000e+00 # coor
113 1 1 0.0000  0.000000e+00  1.130000e+02  0.000000e+00 # coor
114 1 1 0.0000  0.000000e+00  1.140000e+02  0.000000e+00 # coor
115 1 1 0.0000  0.000000e+00  1.150000e+02  0.000000e+00 # coor
116 1 1 0.0000  0.000000e+00  1.160000e+02  0.000000e+00 # coor
117 1 1 0.0000  0.000000e+00  1.170000e+02  0.000000e+00 # coor
118 1 1 0.0000  0.000000e+00  1.180000e+02  0.000000e+00 # coor
119 1 1 0.0000  0.000000e+00  1.190000e+02  0.000000e+00 # coor
120 1 1 0.0000  0.000000e+00  1.200000e+02  0.000000e+00 # coor
121 1 1 0.0000  0.000000e+00  1.210000e+02  0.000000e+00 # coor
122 1 1 0.0000  0.000000e+00  1.220000e+02  0.000000e+00 # coor
123 1 1 0.0000  0.000000e+00  1.230000e+02  0.000000e+00 # coor
124 1 1 0.0000  0.000000e+00  1.240000e+02  0.000000e+00 # coor
125 1 1 0.0000  0.000000e+00  1.250000e+02  0.000000e+00 # coor
126 1 1 0.0000  0.000000e+00  1.260000e+02  0.000000e+00 # coor
127 1 1 0.0000  0.000000e+00  1.270000e+02  0.000000e+00 # coor
128 1 1 0.0000  0.000000e+00  1.280000e+02  0.000000e+00 # coor
129 1 1 0.0000  0.000000e+00  1.290000e+02  0.000000e+00 # coor
130 1 1 0.0000  0.000000e+00  1.300000e+02  0.000000e+00 # coor
131 1 1 0.0000  0.000000e+00  1.310000e+02  0.000000e+00 # coor
132 1 1 0.0000  0.000000e+00  1.320000e+02  0.000000e+00 # coor
133 1 1 0.0000  0.000000e+00  1.330000e+02  0.000000e+00 # coor
134 1 1 0.0000  0.000000e+00  1.340000e+02  0.000000e+00 # coor
135 1 1 0.0000  0.000000e+00  1.350000e+02  0.000000e+00 # coor
136 1 1 0.0000  0.000000e+00  1.360000e+02  0.000000e+00 # coor
137 1 1 0.0000  0.000000e+00  1.370000e+02  0.000000e+00 # coor
138 1 1 0.0000  0.000000e+00  1.380000e+02  0.000000e+00 # coor
139 1 1 0.0000  0.000000e+00  1.390000e+02  0.000000e+00 # coor
140 1 1 0.0000  0.000000e+00  1.400000e+02  0.000000e+00 # coor
141 1 1 0.0000  0.000000e+00  1.410000e+02  0.000000e+00 # coor
142 1 1 0.0000  0.000000e+00  1.420000e+02  0.000000e+00 # coor
143 1 1 0.0000  0.000000e+00  1.430000e+02  0.000000e+00 # coor
144 1 1 0.0000  0.000000e+00  1.440000e+02  0.000000e+00 # coor
145 1 1 0.0000  0.000000e+00  1.450000e+02  0.000000e+00 # coor
146 1 1 0.0000  0.000000e+00  1.460000e+02  0.000000e+00 # coor
147 1 1 0.0000  0.000000e+00  1.470000e+02  0.000000e+00 # coor
148 1 1 0.0000  0.000000e+00  1.480000e+02  0.000000e+00 # coor
149 1 1 0.0000  0.000000e+00  1.490000e+02  0.000000e+00 # coor
150 1 1 0.0000  0.000000e+00  1.500000e+02  0.000000e+00 # coor
151 1 1 0.0000  0.000000e+00  1.510000e+02  0.000000e+00 # coor
152 1 1 0.0000  0.000000e+00  1.520000e+02  0.000000e+00 # coor
153 1 1 0.0000  0.000000e+00  1.530000e+02  0.000000e+00 # coor
154 1 1 0.0000  0.000000e+00  1.540000e+02  0.000000e+00 # coor
155 1 1 0.0000  0.000000e+00  1.550000e+02  0.000000e+00 # coor
156 1 1 0.0000  0.000000e+00  1.560000e+02  0.000000e+00 # coor
157 1 1 0.0000  0.000000e+00  1.570000e+02  0.000000e+00 # coor
158 1 1 0.0000  0.000000e+00  1.580000e+02  0.000000e+00 # coor
159 1 1 0.0000  0.000000e+00  1.590000e+02  0.000000e+00 # coor
160 1 1 0.0000  0.000000e+00  1.600000e+02  0.000000e+00 # coor
161 1 1 0.0000  0.000000e+00  1.610000e+02  0.000000e+00 # coor
162 1 1 0.0000  0.000000e+00  1.620000e+02  0.000000e+00 # coor
163 1 1 0.0000  0.000000e+00  1.630000e+02  0.000000e+00 # coor
164 1 1 0.0000  0.000000e+00  1.640000e+02  0.000000e+00 # coor
165 1 1 0.0000  0.000000e+00  1.650000e+02  0.000000e+00 # coor
166 1 1 0.0000  0.000000e+00  1.660000e+02  0.000000e+00 # coor
167 1 1 0.0000  0.000000e+00  1.670000e+02  0.000000e+00 # coor
168 1 1 0.0000  0.000000e+00  1.680000e+02  0.000000e+00 # coor
169 1 1 0.0000  0.000000e+00  1.690000e+02  0.000000e+00 # coor
170 1 1 0.0000  0.000000e+00  1.700000e+02  0.000000e+00 # coor
171 1 1 0.0000  0.000000e+00  1.710000e+02  0.000000e+00 # coor
172 1 1 0.0000  0.000000e+00  1.720000e+02  0.000000e+00 # coor
173 1 1 0.0000  0.000000e+00  1.730000e+02  0.000000e+00 # coor
174 1 1 0.0000  0.000000e+00  1.740000e+02  0.000000e+00 # coor
175 1 1 0.0000  0.000000e+00  1.750000e+02  0.000000e+00 # coor
176 1 1 0.0000  0.000000e+00  1.760000e+02  0.000000e+00 # coor
177 1 1 0.0000  0.000000e+00  1.770000e+02  0.000000e+00 # coor
178 1 1 0.0000  0.000000e+00  1.780000e+02  0.000000e+00 # coor
179 1 1 0.0000  0.000000e+00  1.790000e+02  0.000000e+00 # coor
180 1 1 0.0000  0.000000e+00  1.800000e+02  0.000000e+00 # coor
181 1 1 0.0000  0.000000e+00  1.810000e+02  0.000000e+00 # coor
182 1 1 0.0000  0.000000e+00  1.820000e+02  0.000000e+00 # coor
183 1 1 0.0000  0.000000e+00  1.830000e+02  0.000000e+00 # coor
184 1 1 0.0000  0.000000e+00  1.840000e+02  0.000000e+00 # coor
185 1 1 0.0000  0.000000e+00  1.850000e+02  0.000000e+00 # coor
186 1 1 0.0000  0.000000e+00  1.860000e+02  0.000000e+00 # coor
187 1 1 0.0000  0.000000e+00  1.870000e+02  0.000000e+00 # coor
188 1 1 0.0000  0.000000e+00  1.880000e+02  0.000000e+00 # coor
189 1 1 0.0000  0.000000e+00  1.890000e+02  0.000000e+00 # coor
190 1 1 0.0000  0.000000e+00  1.900000e+02  0.000000e+00 # coor
191 1 1 0.0000  0.000000e+00  1.910000e+02  0.000000e+00 # coor
192 1 1 0.0000  0.000000e+00  1.920000e+02  0.000000e+00 # coor
193 1 1 0.0000  0.000000e+00  1.930000e+02  0.000000e+00 # coor
194 1 1 0.0000  0.000000e+00  1.940000e+02  0.000000e+00 # coor
195 1 1 0.0000  0.000000e+00  1.950000e+02  0.000000e+00 # coor
196 1 1 0.0000  0.000000e+00  1.960000e+02  0.000000e+00 # coor
197 1 1 0.0000  0.000000e+00  1.970000e+02  0.000000e+00 # coor
198 1 1 0.0000  0.000000e+00  1.980000e+02  0.000000e+00 # coor
199 1 1 0.0000  0.000000e+00  1.990000e+02  0.000000e+00 # coor
200 1 1 0.0000  0.000000e+00  2.000000e+02  0.000000e+00 # coor
201 1 1 0.0000  0.000000e+00  2.010000e+02  0.000000e+00 # coor
202 1 1 0.0000  0.000000e+00  2.020000e+02  0.000000e+00 # coor
203 1 1 0.0000  0.000000e+00  2.030000e+02  0.000000e+00 # coor
204 1 1 0.0000  0.000000e+00  2.040000e+02  0.000000e+00 # coor
205 1 1 0.0000  0.000000e+00  2.050000e+02  0.000000e+00 # coor
206 1 1 0.0000  0.000000e+00  2.060000e+02  0.000000e+00 # coor
207 1 1 0.0000  0.000000e+00  2.070000e+02  0.000000e+00 # coor
208 1 1 0.0000  0.000000e+00  2.080000e+02  0.000000e+00 # coor
209 1 1 0.0000  0.000000e+00  2.090000e+02  0.000000e+00 # coor
210 1 1 0.0000  0.000000e+00  2.100000e+02  0.000000e+00 # coor
211 1 1 0.0000  0.000000e+00  2.110000e+02  0.000000e+00 # coor
212 1 1 0.0000  0.000000e+00  2.120000e+02  0.000000e+00 # coor
213 1 1 0.0000  0.000000e+00  2.130000e+02  0.000000e+00 # coor
214 1 1 0.0000  0.000000e+00  2.140000e+02  0.000000e+00 # coor
215 1 1 0.0000  0.000000e+00  2.150000e+02  0.000000e+00 # coor
216 1 1 0.0000  0.000000e+00  2.160000e+02  0.000000e+00 # coor
217 1 1 0.0000  0.000000e+00  2.170000e+02  0.000000e+00 # coor
218 1 1 0.0000  0.000000e+00  2.180000e+02  0.000000e+00 # coor
219 1 1 0.0000  0.000000e+00  2.190000e+02  0.000000e+00 # coor
220 1 1 0.0000  0.000000e+00  2.200000e+02  0.000000e+00 # coor
221 1 1 0.0000  0.000000e+00  2.210000e+02  0.000000e+00 # coor
222 1 1 0.0000  0.000000e+00  2.220000e+02  0.000000e+00 # coor
223 1 1 0.0000  0.000000e+00  2.230000e+02  0.000000e+00 # coor
224 1 1 0.0000  0.000000e+00  2.240000e+02  0.000000e+00 # coor
225 1 1 0.0000  0.000000e+00  2.250000e+02  0.000000e+00 # coor
226 1 1 0.0000  0.000000e+00  2.260000e+02  0.000000e+00 # coor
227 1 1 0.0000  0.000000e+00  2.270000e+02  0.000000e+00 # coor
228 1 1 0.0000  0.000000e+00  2.280000e+02  0.000000e+00 # coor
229 1 1 0.0000  0.000000e+00  2.290000e+02  0.000000e+00 # coor
230 1 1 0.0000  0.000000e+00  2.300000e+02  0.000000e+00 # coor
231 1 1 0.0000  0.000000e+00  2.310000e+02  0.000000e+00 # coor
232 1 1 0.0000  0.000000e+00  2.320000e+02  0.000000e+00 # coor
233 1 1 0.0000  0.000000e+00  2.330000e+02  0.000000e+00 # coor
234 1 1 0.0000  0.000000e+00  2.340000e+02  0.000000e+00 # coor
235 1 1 0.0000  0.000000e+00  2.350000e+02  0.000000e+00 # coor
236 1 1 0.0000  0.000000e+00  2.360000e+02  0.000000e+00 # coor
237 1 1 0.0000  0.000000e+00  2.370000e+02  0.000000e+00 # coor
238 1 1 0.0000  0.000000e+00  2.380000e+02  0.000000e+00 # coor
239 1 1 0.0000  0.000000e+00  2.390000e+02  0.000000e+00 # coor
240 1 1 0.0000  0.000000e+00  2.400000e+02  0.000000e+00 # coor
241 1 1 0.0000  0.000000e+00  2.410000e+02  0.000000e+00 # coor
242 1 1 0.0000  0.000000e+00  2.420000e+02  0.000000e+00 # coor
243 1 1 0.0000  0.000000e+00  2.430000e+02  0.000000e+00 # coor
244 1 1 0.0000  0.000000e+00  2.440000e+02  0.000000e+00 # coor
245 1 1 0.0000  0.000000e+00  2.450000e+02  0.000000e+00 # coor
246 1 1 0.0000  0.000000e+00  2.460000e+02  0.000000e+00 # coor
247 1 1 0.0000  0.000000e+00  2.470000e+02  0.000000e+00 # coor
248 1 1 0.0000  0.000000e+00  2.480000e+02  0.000000e+00 # coor
249 1 1 0.0000  0.000000e+00  2.490000e+02  0.000000e+00 # coor
250 1 1 0.0000  0.000000e+00  2.500000e+02  0.000000e+00 # coor
251 1 1 0.0000  0.000000e+00  2.510000e+02  0.000000e+00 # coor
252 1 1 0.0000  0.000000e+00  2.520000e+02  0.000000e+00 # coor
253 1 1 0.0000  0.000000e+00  2.530000e+02  0.000000e+00 # coor
254 1 1 0.0000  0.000000e+00  2.540000e+02  0.000000e+00 # coor
255 1 1 0.0000  0.000000e+00  2.550000e+02  0.000000e+00 # coor
256 1 1 0.0000  0.000000e+00  2.560000e+02  0.000000e+00 # coor
257 1 1 0.0000  0.000000e+00  2.570000e+02  0.000000e+00 # coor
258 1 1 0.0000  0.000000e+00  2.580000e+02  0.000000e+00 # coor
259 1 1 0.0000  0.000000e+00  2.590000e+02  0.000000e+00 # coor
260 1 1 0.0000  0.000000e+00  2.600000e+02  0.000000e+00 # coor
261 1 1 0.0000  0.000000e+00  2.610000e+02  0.000000e+00 # coor
262 1 1 0.0000  0.000000e+00  2.620000e+02  0.000000e+00 # coor
263 1 1 0.0000  0.000000e+00  2.630000e+02  0.000000e+00 # coor
264 1 1 0.0000  0.000000e+00  2.640000e+02  0.000000e+00 # coor
265 1 1 0.0000  0.000000e+00  2.650000e+02  0.000000e+00 # coor
266 1 1 0.0000  0.000000e+00  2.660000e+02  0.000000e+00 # coor
267 1 1 0.0000  0.000000e+00  2.670000e+02  0.000000e+00 # coor
268 1 1 0.0000  0.000000e+00  2.680000e+02  0.000000e+00 # coor
269 1 1 0.0000  0.000000e+00  2.690000e+02  0.000000e+00 # coor
270 1 1 0.0000  0.000000e+00  2.700000e+02  0.000000e+00 # coor
271 1 1 0.0000  0.000000e+00  2.710000e+02  0.000000e+00 # coor
272 1 1 0.0000  0.000000e+00  2.720000e+02  0.000000e+00 # coor
273 1 1 0.0000  0.000000e+00  2.730000e+02  0.000000e+00 # coor
274 1 1 0.0000  0.000000e+00  2.740000e+02  0.000000e+00 # coor
275 1 1 0.0000  0.000000e+00  2.750000e+02  0.000000e+00 # coor
276 1 1 0.0000  0.000000e+00  2.760000e+02  0.000000e+00 # coor
277 1 1 0.0000  0.000000e+00  2.770000e+02  0.000000e+00 # coor
278 1 1 0.0000  0.000000e+00  2.780000e+02  0.000000e+00 # coor
279 1 1 0.0000  0.000000e+00  2.790000e+02  0.000000e+00 # coor
280 1 1 0.0000  0.000000e+00  2.800000e+02  0.000000e+00 # coor
281 1 1 0.0000  0.000000e+00  2.810000e+02  0.000000e+00 # coor
282 1 1 0.0000  0.000000e+00  2.820000e+02  0.000000e+00 # coor
283 1 1 0.0000  0.000000e+00  2.830000e+02  0.000000e+00 # coor
284 1 1 0.0000  0.000000e+00  2.840000e+02  0.000000e+00 # coor
285 1 1 0.0000  0.000000e+00  2.850000e+02  0.000000e+00 # coor
286 1 1 0.0000  0.000000e+00  2.860000e+02  0.000000e+00 # coor
287 1 1 0.0000  0.000000e+00  2.870000e+02  0.000000e+00 # coor
288 1 1 0.0000  0.000000e+00  2.880000e+02  0.000000e+00 # coor
289 1 1 0.0000  0.000000e+00  2.890000e+02  0.000000e+00 # coor
290 1 1 0.0000  0.000000e+00  2.900000e+02  0.000000e+00 # coor
291 1 1 0.0000  0.000000e+00  2.910000e+02  0.000000e+00 # coor
292 1 1 0.0000  0.000000e+00  2.920000e+02  0.000000e+00 # coor
293 1 1 0.0000  0.000000e+00  2.930000e+02  0.000000e+00 # coor
294 1 1 0.0000  0.000000e+00  2.940000e+02  0.000000e+00 # coor
295 1 1 0.0000  0.000000e+00  2.950000e+02  0.000000e+00 # coor
296 1 1 0.0000  0.000000e+00  2.960000e+02  0.000000e+00 # coor
297 1 1 0.0000  0.000000e+00  2.970000e+02  0.000000e+00 # coor
298 1 1 0.0000  0.000000e+00  2.980000e+02  0.000000e+00 # coor
299 1 1 0.0000  0.000000e+00  2.990000e+02  0.000000e+00 # coor
300 1 1 0.0000  0.000000e+00  3.000000e+02  0.000000e+00 # coor
301 1 1 0.0000  0.000000e+00  3.010000e+02  0.000000e+00 # coor
302 1 1 0.0000  0.000000e+00  3.020000e+02  0.000000e+00 # coor
303 1 1 0.0000  0.000000e+00  3.030000e+02  0.000000e+00 # coor
304 1 1 0.0000  0.000000e+00  3.040000e+02  0.000000e+00 # coor
305 1 1 0.0000  0.000000e+00  3.050000e+02  0.000000e+00 # coor
306 1 1 0.0000  0.000000e+00  3.060000e+02  0.000000e+00 # coor
307 1 1 0.0000  0.000000e+00  3.070000e+02  0.000000e+00 # coor
308 1 1 0.0000  0.000000e+00  3.080000e+02  0.000000e+00 # coor
309 1 1 0.0000  0.000000e+00  3.090000e+02  0.000000e+00 # coor
310 1 1 0.0000  0.000000e+00  3.100000e+02  0.000000e+00 # coor
311 1 1 0.0000  0.000000e+00  3.110000e+02  0.000000e+00 # coor
312 1 1 0.0000  0.000000e+00  3.120000e+02  0.000000e+00 # coor
313 1 1 0.0000  0.000000e+00  3.130000e+02  0.000000e+00 # coor
314 1 1 0.0000  0.000000e+00  3.140000e+02  0.000000e+00 # coor
315 1 1 0.0000  0.000000e+00  3.150000e+02  0.000000e+00 # coor
316 1 1 0.0000  0.000000e+00  3.160000e+02  0.000000e+00 # coor
317 1 1 0.0000  0.000000e+00  3.170000e+02  0.000000e+00 # coor
318 1 1 0.0000  0.000000e+00  3.180000e+02  0.000000e+00 # coor
319 1 1 0.0000  0.000000e+00  3.190000e+02  0.000000e+00 # coor
320 1 1 0.0000  0.000000e+00  3.200000e+02  0.000000e+00 # coor
321 1 1 0.0000  0.000000e+00  3.210000e+02  0.000000e+00 # coor
322 1 1 0.0000  0.000000e+00  3.220000e+02  0.000000e+00 # coor
323 1 1 0.0000  0.000000e+00  3.230000e+02  0.000000e+00 # coor
324 1 1 0.0000  0.000000e+00  3.240000e+02  0.000000e+00 # coor
325 1 1 0.0000  0.000000e+00  3.250000e+02  0.000000e+00 # coor
326 1 1 0.0000  0.000000e+00  3.260000e+02  0.000000e+00 # coor
327 1 1 0.0000  0.000000e+00  3.270000e+02  0.000000e+00 # coor
328 1 1 0.0000  0.000000e+00  3.280000e+02  0.000000e+00 # coor
329 1 1 0.0000  0.000000e+00  3.290000e+02  0.000000e+00 # coor
330 1 1 0.0000  0.000000e+00  3.300000e+02  0.000000e+00 # coor
331 1 1 0.0000  0.000000e+00  3.310000e+02  0.000000e+00 # coor
332 1 1 0.0000  0.000000e+00  3.320000e+02  0.000000e+00 # coor
333 1 1 0.0000  0.000000e+00  3.330000e+02  0.000000e+00 # coor
334 1 1 0.0000  0.000000e+00  3.340000e+02  0.000000e+00 # coor
335 1 1 0.0000  0.000000e+00  3.350000e+02  0.000000e+00 # coor
336 1 1 0.0000  0.000000e+00  3.360000e+02  0.000000e+00 # coor
337 1 1 0.0000  0.000000e+00  3.370000e+02  0.000000e+00 # coor
338 1 1 0.0000  0.000000e+00  3.380000e+02  0.000000e+00 # coor
339 1 1 0.0000  0.000000e+00  3.390000e+02  0.000000e+00 # coor
340 1 1 0.0000  0.000000e+00  3.400000e+02  0.000000e+00 # coor
341 1 1 0.0000  0.000000e+00  3.410000e+02  0.000000e+00 # coor
342 1 1 0.0000  0.000000e+00  3.420000e+02  0.000000e+00 # coor
343 1 1 0.0000  0.000000e+00  3.430000e+02  0.000000e+00 # coor
344 1 1 0.0000  0.000000e+00  3.440000e+02  0.000000e+00 # coor
345 1 1 0.0000  0.000000e+00  3.450000e+02  0.000000e+00 # coor
346 1 1 0.0000  0.000000e+00  3.460000e+02  0.000000e+00 # coor
347 1 1 0.0000  0.000000e+00  3.470000e+02  0.000000e+00 # coor
348 1 1 0.0000  0.000000e+00  3.480000e+02  0.000000e+00 # coor
349 1 1 0.0000  0.000000e+00  3.490000e+02  0.000000e+00 # coor
350 1 1 0.0000  0.000000e+00  3.500000e+02  0.000000e+00 # coor
351 1 1 0.0000  0.000000e+00  3.510000e+02  0.000000e+00 # coor
352 1 1 0.0000  0.000000e+00  3.520000e+02  0.000000e+00 # coor
353 1 1 0.0000  0.000000e+00  3.530000e+02  0.000000e+00 # coor
354 1 1 0.0000  0.000000e+00  3.540000e+02  0.000000e+00 # coor
355 1 1 0.0000  0.000000e+00  3.550000e+02  0.000000e+00 # coor
356 1 1 0.0000  0.000000e+00  3.560000e+02  0.000000e+00 # coor
357 1 1 0.0000  0.000000e+00  3.570000e+02  0.000000e+00 # coor
358 1 1 0.0000  0.000000e+00  3.580000e+02  0.000000e+00 # coor
359 1 1 0.0000  0.000000e+00  3.590000e+02  0.000000e+00 # coor
360 1 1 0.0000  0.000000e+00  3.600000e+02  0.000000e+00 # coor
361 1 1 0.0000  0.000000e+00  3.610000e+02  0.000000e+00 # coor
362 1 1 0.0000  0.000000e+00  3.620000e+02  0.000000e+00 # coor
363 1 1 0.0000  0.000000e+00  3.630000e+02  0.000000e+00 # coor
364 1 1 0.0000  0.000000e+00  3.640000e+02  0.000000e+00 # coor
365 1 1 0.0000  0.000000e+00  3.650000e+02  0.000000e+00 # coor
366 1 1 0.0000  0.000000e+00  3.660000e+02  0.000000e+00 # coor
367 1 1 0.0000  0.000000e+00  3.670000e+02  0.000000e+00 # coor
368 1 1 0.0000  0.000000e+00  3.680000e+02  0.000000e+00 # coor
369 1 1 0.0000  0.000000e+00  3.690000e+02  0.000000e+00 # coor
370 1 1 0.0000  0.000000e+00  3.700000e+02  0.000000e+00 # coor
371 1 1 0.0000  0.000000e+00  3.710000e+02  0.000000e+00 # coor
372 1 1 0.0000  0.000000e+00  3.720000e+02  0.000000e+00 # coor
373 1 1 0.0000  0.000000e+00  3.730000e+02  0.000000e+00 # coor
374 1 1 0.0000  0.000000e+00  3.740000e+02  0.000000e+00 # coor
375 1 1 0.0000  0.000000e+00  3.750000e+02  0.000000e+00 # coor
376 1 1 0.0000  0.000000e+00  3.760000e+02  0.000000e+00 # coor
377 1 1 0.0000  0.000000e+00  3.770000e+02  0.000000e+00 # coor
378 1 1 0.0000  0.000000e+00  3.780000e+02  0.000000e+00 # coor
379 1 1 0.0000  0.000000e+00  3.790000e+02  0.000000e+00 # coor
380 1 1 0.0000  0.000000e+00  3.800000e+02  0.000000e+00 # coor
381 1 1 0.0000  0.000000e+00  3.810000e+02  0.000000e+00 # coor
382 1 1 0.0000  0.000000e+00  3.820000e+02  0.000000e+00 # coor
383 1 1 0.0000  0.000000e+00  3.830000e+02  0.000000e+00 # coor
384 1 1 0.0000  0.000000e+00  3.840000e+02  0.000000e+00 # coor
385 1 1 0.0000  0.000000e+00  3.850000e+02  0.000000e+00 # coor
386 1 1 0.0000  0.000000e+00  3.860000e+02  0.000000e+00 # coor
387 1 1 0.0000  0.000000e+00  3.870000e+02  0.000000e+00 # coor
388 1 1 0.0000  0.000000e+00  3.880000e+02  0.000000e+00 # coor
389 1 1 0.0000  0.000000e+00  3.890000e+02  0.000000e+00 # coor
390 1 1 0.0000  0.000000e+00  3.900000e+02  0.000000e+00 # coor
391 1 1 0.0000  0.000000e+00  3.910000e+02  0.000000e+00 # coor
392 1 1 0.0000  0.000000e+00  3.920000e+02  0.000000e+00 # coor
393 1 1 0.0000  0.000000e+00  3.930000e+02  0.000000e+00 # coor
394 1 1 0.0000  0.000000e+00  3.940000e+02  0.000000e+00 # coor
395 1 1 0.0000  0.000000e+00  3.950000e+02  0.000000e+00 # coor
396 1 1 0.0000  0.000000e+00  3.960000e+02  0.000000e+00 # coor
397 1 1 0.0000  0.000000e+00  3.970000e+02  0.000000e+00 # coor
398 1 1 0.0000  0.000000e+00  3.980000e+02  0.000000e+00 # coor
399 1 1 0.0000  0.000000e+00  3.990000e+02  0.000000e+00 # coor
400 1 1 0.0000  0.000000e+00  4.000000e+02  0.000000e+00 # coor
401 1 1 0.0000  0.000000e+00  4.010000e+02  0.000000e+00 # coor
402 1 1 0.0000  0.000000e+00  4.020000e+02  0.000000e+00 # coor
403 1 1 0.0000  0.000000e+00  4.030000e+02  0.000000e+00 # coor
404 1 1 0.0000  0.000000e+00  4.040000e+02  0.000000e+00 # coor
405 1 1 0.0000  0.000000e+00  4.050000e+02  0.000000e+00 # coor
406 1 1 0.0000  0.000000e+00  4.060000e+02  0.000000e+00 # coor
407 1 1 0.0000  0.000000e+00  4.070000e+02  0.000000e+00 # coor
408 1 1 0.0000  0.000000e+00  4.080000e+02  0.000000e+00 # coor
409 1 1 0.0000  0.000000e+00  4.090000e+02  0.000000e+00 # coor
410 1 1 0.0000  0.000000e+00  4.100000e+02  0.000000e+00 # coor
411 1 1 0.0000  0.000000e+00  4.110000e+02  0.000000e+00 # coor
412 1 1 0.0000  0.000000e+00  4.120000e+02  0.000000e+00 # coor
413 1 1 0.0000  0.000000e+00  4.130000e+02  0.000000e+00 # coor
414 1 1 0.0000  0.000000e+00  4.140000e+02  0.000000e+00 # coor
415 1 1 0.0000  0.000000e+00  4.150000e+02  0.000000e+00 # coor
416 1 1 0.0000  0.000000e+00  4.160000e+02  0.000000e+00 # coor
417 1 1 0.0000  0.000000e+00  4.170000e+02  0.000000e+00 # coor
418 1 1 0.0000  0.000000e+00  4.180000e+02  0.000000e+00 # coor
419 1 1 0.0000  0.000000e+00  4.190000e+02  0.000000e+00 # coor
420 1 1 0.0000  0.000000e+00  4.200000e+02  0.000000e+00 # coor
421 1 1 0.0000  0.000000e+00  4.210000e+02  0.000000e+00 # coor
422 1 1 0.0000  0.000000e+00  4.220000e+02  0.000000e+00 # coor
423 1 1 0.0000  0.000000e+00  4.230000e+02  0.000000e+00 # coor
424 1 1 0.0000  0.000000e+00  4.240000e+02  0.000000e+00 # coor
425 1 1 0.0000  0.000000e+00  4.250000e+02  0.000000e+00 # coor
426 1 1 0.0000  0.000000e+00  4.260000e+02  0.000000e+00 # coor
427 1 1 0.0000  0.000000e+00  4.270000e+02  0.000000e+00 # coor
428 1 1 0.0000  0.000000e+00  4.280000e+02  0.000000e+00 # coor
429 1 1 0.0000  0.000000e+00  4.290000e+02  0.000000e+00 # coor
430 1 1 0.0000  0.000000e+00  4.300000e+02  0.000000e+00 # coor
431 1 1 0.0000  0.000000e+00  4.310000e+02  0.000000e+00 # coor
432 1 1 0.0000  0.000000e+00  4.320000e+02  0.000000e+00 # coor
433 1 1 0.0000  0.000000e+00  4.330000e+02  0.000000e+00 # coor
434 1 1 0.0000  0.000000e+00  4.340000e+02  0.000000e+00 # coor
435 1 1 0.0000  0.000000e+00  4.350000e+02  0.000000e+00 # coor
436 1 1 0.0000  0.000000e+00  4.360000e+02  0.000000e+00 # coor
437 1 1 0.0000  0.000000e+00  4.370000e+02  0.000000e+00 # coor
438 1 1 0.0000  0.000000e+00  4.380000e+02  0.000000e+00 # coor
439 1 1 0.0000  0.000000e+00  4.390000e+02  0.000000e+00 # coor
440 1 1 0.0000  0.000000e+00  4.400000e+02  0.000000e+00 # coor
441 1 1 0.0000  0.000000e+00  4.410000e+02  0.000000e+00 # coor
442 1 1 0.0000  0.000000e+00  4.420000e+02  0.000000e+00 # coor
443 1 1 0.0000  0.000000e+00  4.430000e+02  0.000000e+00 # coor
444 1 1 0.0000  0.000000e+00  4.440000e+02  0.000000e+00 # coor
445 1 1 0.0000  0.000000e+00  4.450000e+02  0.000000e+00 # coor
446 1 1 0.0000  0.000000e+00  4.460000e+02  0.000000e+00 # coor
447 1 1 0.0000  0.000000e+00  4.470000e+02  0.000000e+00 # coor
448 1 1 0.0000  0.000000e+00  4.480000e+02  0.000000e+00 # coor
449 1 1 0.0000  0.000000e+00  4.490000e+02  0.000000e+00 # coor
450 1 1 0.0000  0.000000e+00  4.500000e+02  0.000000e+00 # coor
451 1 1 0.0000  0.000000e+00  4.510000e+02  0.000000e+00 # coor
452 1 1 0.0000  0.000000e+00  4.520000e+02  0.000000e+00 # coor
453 1 1 0.0000  0.000000e+00  4.530000e+02  0.000000e+00 # coor
454 1 1 0.0000  0.000000e+00  4.540000e+02  0.000000e+00 # coor
455 1 1 0.0000  0.000000e+00  4.550000e+02  0.000000e+00 # coor
456 1 1 0.0000  0.000000e+00  4.560000e+02  0.000000e+00 # coor
457 1 1 0.0000  0.000000e+00  4.570000e+02  0.000000e+00 # coor
458 1 1 0.0000  0.000000e+00  4.580000e+02  0.000000e+00 # coor
459 1 1 0.0000  0.000000e+00  4.590000e+02  0.000000e+00 # coor
460 1 1 0.0000  0.000000e+00  4.600000e+02  0.000000e+00 # coor
461 1 1 0.0000  0.000000e+00  4.610000e+02  0.000000e+00 # coor
462 1 1 0.0000  0.000000e+00  4.620000e+02  0.000000e+00 # coor
463 1 1 0.0000  0.000000e+00  4.630000e+02  0.000000e+00 # coor
464 1 1 0.0000  0.000000e+00  4.640000e+02  0.000000e+00 # coor
465 1 1 0.0000  0.000000e+00  4.650000e+02  0.000000e+00 # coor
466 1 1 0.0000  0.000000e+00  4.660000e+02  0.000000e+00 # coor