LAMMPS data file. CGCMM style. atom_style full generated by VMD/TopoTools v1.7 on Mon Aug 06 12:12:08 EDT 2018
 30000 atoms
 29999 bonds
 29998 angles
 0 dihedrals
 0 impropers
 1 atom types
 1 bond types
 1 angle types
 0 dihedral types
 0 improper types
 17.865940 85.846271  xlo xhi
 35.591421 103.571752  ylo yhi
 -72.099026 -4.118695  zlo zhi

# Pair Coeffs
#
# 1  A

# Bond Coeffs
#
# 1  polymer

# Angle Coeffs
#
# 1  A-A-A

 Masses

 1 1.000000 # A

 Atoms # full

1 1 1 0.000000 16.757053 -4.165868 -23.463779 # A 
2 1 1 0.000000 17.428886 -3.523891 -23.793053 # A 
3 1 1 0.000000 17.454987 -4.184495 -24.424025 # A 
4 1 1 0.000000 17.790176 -4.559104 -23.452559 # A 
5 1 1 0.000000 17.358786 -5.046472 -22.669128 # A 
6 1 1 0.000000 17.367702 -5.838240 -22.042206 # A 
7 1 1 0.000000 17.292471 -5.099504 -21.567869 # A 
8 1 1 0.000000 18.199940 -5.531810 -21.345636 # A 
9 1 1 0.000000 18.407066 -5.373767 -22.198185 # A 
10 1 1 0.000000 18.075020 -4.500529 -21.980932 # A 
11 1 1 0.000000 17.039013 -4.156735 -22.091581 # A 
12 1 1 0.000000 17.429506 -4.145163 -21.133921 # A 
13 1 1 0.000000 16.858414 -3.194071 -21.356941 # A 
14 1 1 0.000000 16.482048 -2.041742 -21.313843 # A 
15 1 1 0.000000 16.087337 -0.966774 -21.464239 # A 
16 1 1 0.000000 15.368769 -1.116467 -20.884125 # A 
17 1 1 0.000000 15.567649 -0.911962 -19.991535 # A 
18 1 1 0.000000 16.030281 -0.244716 -19.634003 # A 
19 1 1 0.000000 16.048918 0.427255 -18.971638 # A 
20 1 1 0.000000 17.005617 0.217498 -19.325569 # A 
21 1 1 0.000000 16.493223 0.608567 -20.109219 # A 
22 1 1 0.000000 16.585966 0.164736 -21.035311 # A 
23 1 1 0.000000 15.937804 -0.173160 -20.690205 # A 
24 1 1 0.000000 15.587308 0.689983 -20.825819 # A 
25 1 1 0.000000 15.176992 0.304894 -20.029547 # A 
26 1 1 0.000000 14.657308 -0.420778 -20.365492 # A 
27 1 1 0.000000 14.907824 -0.104041 -21.133644 # A 
28 1 1 0.000000 14.999198 -0.715120 -21.848856 # A 
29 1 1 0.000000 15.766171 -0.546783 -22.450769 # A 
30 1 1 0.000000 15.735969 0.097072 -21.768578 # A 
31 1 1 0.000000 16.128675 0.914390 -21.706764 # A 
32 1 1 0.000000 16.199963 0.832390 -22.685873 # A 
33 1 1 0.000000 16.685146 1.487433 -23.421146 # A 
34 1 1 0.000000 17.099728 1.229187 -24.275503 # A 
35 1 1 0.000000 17.804512 1.662272 -23.810997 # A 
36 1 1 0.000000 18.814762 1.850767 -24.029364 # A 
37 1 1 0.000000 19.530582 2.272693 -23.601610 # A 
38 1 1 0.000000 19.071880 1.714779 -22.966047 # A 
39 1 1 0.000000 19.444658 1.853127 -22.139971 # A 
40 1 1 0.000000 19.892160 1.108099 -22.371479 # A 
41 1 1 0.000000 19.987257 1.255021 -21.470547 # A 
42 1 1 0.000000 20.298309 2.058688 -21.314672 # A 
43 1 1 0.000000 20.634478 1.945341 -22.118114 # A 
44 1 1 0.000000 21.095852 1.369945 -21.357355 # A 
45 1 1 0.000000 21.606892 0.469897 -21.437792 # A 
46 1 1 0.000000 21.824694 0.883020 -20.554420 # A 
47 1 1 0.000000 22.720083 0.676636 -20.998091 # A 
48 1 1 0.000000 22.253717 1.423767 -21.460651 # A 
49 1 1 0.000000 21.640972 1.152342 -22.238560 # A 
50 1 1 0.000000 21.707176 1.760375 -22.874804 # A 
51 1 1 0.000000 21.802794 1.610464 -23.850676 # A 
52 1 1 0.000000 21.444818 1.963140 -24.728975 # A 
53 1 1 0.000000 21.297194 1.971379 -25.713503 # A 
54 1 1 0.000000 21.079248 1.829837 -26.530994 # A 
55 1 1 0.000000 21.810816 1.407049 -27.064899 # A 
56 1 1 0.000000 21.102911 0.780092 -26.795683 # A 
57 1 1 0.000000 21.747877 1.023988 -25.987379 # A 
58 1 1 0.000000 22.272350 1.932849 -26.236153 # A 
59 1 1 0.000000 22.285643 2.246179 -25.330820 # A 
60 1 1 0.000000 21.529619 2.908921 -25.217255 # A 
61 1 1 0.000000 21.016470 2.951530 -24.370935 # A 
62 1 1 0.000000 20.400898 2.398503 -24.455887 # A 
63 1 1 0.000000 19.840565 2.409539 -25.098585 # A 
64 1 1 0.000000 20.398209 1.640506 -25.298729 # A 
65 1 1 0.000000 20.617128 1.044622 -25.842068 # A 
66 1 1 0.000000 21.025047 0.328952 -25.420683 # A 
67 1 1 0.000000 21.503040 -0.041187 -26.193710 # A 
68 1 1 0.000000 20.483088 0.005069 -26.357882 # A 
69 1 1 0.000000 19.984886 -0.759795 -26.150764 # A 
70 1 1 0.000000 19.839222 -0.848652 -25.304756 # A 
71 1 1 0.000000 19.794441 -0.157288 -24.537077 # A 
72 1 1 0.000000 19.440269 -1.032082 -24.249119 # A 
73 1 1 0.000000 18.877254 -1.535106 -24.893827 # A 
74 1 1 0.000000 18.794752 -0.593987 -25.075048 # A 
75 1 1 0.000000 17.994556 -0.219285 -24.904392 # A 
76 1 1 0.000000 17.986822 -0.525871 -25.825514 # A 
77 1 1 0.000000 17.923019 -0.850592 -26.674475 # A 
78 1 1 0.000000 18.387094 -1.665559 -26.484493 # A 
79 1 1 0.000000 19.086874 -1.415633 -25.937660 # A 
80 1 1 0.000000 18.967714 -0.502790 -26.129107 # A 
81 1 1 0.000000 19.012432 -0.803446 -26.867331 # A 
82 1 1 0.000000 19.549236 -1.502712 -26.925037 # A 
83 1 1 0.000000 19.111797 -2.469702 -26.525625 # A 
84 1 1 0.000000 18.800333 -2.253967 -27.449991 # A 
85 1 1 0.000000 19.337179 -2.505354 -28.370861 # A 
86 1 1 0.000000 19.087605 -3.519902 -28.655590 # A 
87 1 1 0.000000 19.968019 -3.132410 -29.164360 # A 
88 1 1 0.000000 20.312506 -2.262328 -29.032177 # A 
89 1 1 0.000000 21.208706 -2.784552 -29.412882 # A 
90 1 1 0.000000 22.247175 -2.839579 -28.933577 # A 
91 1 1 0.000000 22.596472 -3.549013 -29.167583 # A 
92 1 1 0.000000 22.498007 -4.172661 -28.243551 # A 
93 1 1 0.000000 23.173126 -4.425170 -27.598433 # A 
94 1 1 0.000000 22.844067 -4.864773 -26.951530 # A 
95 1 1 0.000000 22.879383 -5.772844 -26.262272 # A 
96 1 1 0.000000 23.036737 -6.004865 -27.360128 # A 
97 1 1 0.000000 22.452274 -6.653487 -26.835918 # A 
98 1 1 0.000000 22.472372 -6.874331 -27.823002 # A 
99 1 1 0.000000 22.895538 -7.093032 -28.640898 # A 
100 1 1 0.000000 23.049408 -7.930112 -28.133688 # A 
101 1 1 0.000000 23.575420 -7.938787 -29.003044 # A 
102 1 1 0.000000 23.990171 -8.687250 -29.484922 # A 
103 1 1 0.000000 24.466818 -8.460508 -28.754372 # A 
104 1 1 0.000000 24.947720 -7.806458 -28.182413 # A 
105 1 1 0.000000 24.788979 -8.416598 -27.517664 # A 
106 1 1 0.000000 23.866182 -8.613838 -27.896864 # A 
107 1 1 0.000000 23.556898 -8.339749 -27.103910 # A 
108 1 1 0.000000 23.525242 -8.674000 -26.189535 # A 
109 1 1 0.000000 24.434355 -8.474707 -26.012911 # A 
110 1 1 0.000000 23.922979 -8.118530 -25.330410 # A 
111 1 1 0.000000 24.758078 -8.285878 -24.916843 # A 
112 1 1 0.000000 24.695850 -7.460945 -25.712076 # A 
113 1 1 0.000000 25.293818 -7.247796 -26.457039 # A 
114 1 1 0.000000 24.820221 -6.858971 -27.339149 # A 
115 1 1 0.000000 24.754532 -6.710840 -28.261425 # A 
116 1 1 0.000000 24.409327 -5.791057 -27.911783 # A 
117 1 1 0.000000 24.173677 -4.917846 -28.171024 # A 
118 1 1 0.000000 24.267237 -5.507042 -28.914318 # A 
119 1 1 0.000000 25.184502 -5.844514 -28.801804 # A 
120 1 1 0.000000 25.859026 -6.094662 -29.725285 # A 
121 1 1 0.000000 26.035337 -5.344120 -29.191847 # A 
122 1 1 0.000000 25.937376 -4.400474 -29.282286 # A 
123 1 1 0.000000 25.614079 -4.047743 -29.996149 # A 
124 1 1 0.000000 24.818207 -3.973586 -30.216743 # A 
125 1 1 0.000000 24.980616 -2.961126 -30.330511 # A 
126 1 1 0.000000 24.059137 -3.212039 -30.142574 # A 
127 1 1 0.000000 23.633230 -2.379726 -30.055737 # A 
128 1 1 0.000000 22.992329 -3.143380 -30.129469 # A 
129 1 1 0.000000 22.197451 -2.649778 -30.011986 # A 
130 1 1 0.000000 21.978483 -3.542220 -30.071648 # A 
131 1 1 0.000000 22.419317 -3.311328 -31.062429 # A 
132 1 1 0.000000 22.276363 -3.775829 -32.033592 # A 
133 1 1 0.000000 23.195312 -3.681486 -31.862091 # A 
134 1 1 0.000000 22.955585 -4.627304 -31.825209 # A 
135 1 1 0.000000 23.410782 -4.526174 -32.703800 # A 
136 1 1 0.000000 23.362225 -5.500245 -32.691830 # A 
137 1 1 0.000000 22.422028 -5.665640 -32.282314 # A 
138 1 1 0.000000 21.776361 -6.457080 -32.057739 # A 
139 1 1 0.000000 22.406223 -6.107150 -31.241863 # A 
140 1 1 0.000000 21.878242 -6.039421 -30.317913 # A 
141 1 1 0.000000 21.497866 -5.200803 -30.286308 # A 
142 1 1 0.000000 20.595327 -5.151389 -30.747185 # A 
143 1 1 0.000000 20.806631 -6.090933 -30.500790 # A 
144 1 1 0.000000 21.332531 -5.788106 -31.310472 # A 
145 1 1 0.000000 21.502684 -6.751340 -31.029835 # A 
146 1 1 0.000000 20.478529 -6.931364 -31.107126 # A 
147 1 1 0.000000 19.600504 -7.337554 -30.797016 # A 
148 1 1 0.000000 18.915552 -6.796745 -31.352562 # A 
149 1 1 0.000000 18.095255 -7.066786 -31.772058 # A 
150 1 1 0.000000 17.852053 -7.899105 -31.509491 # A 
151 1 1 0.000000 17.992775 -8.033336 -32.357315 # A 
152 1 1 0.000000 17.989779 -7.322569 -32.865105 # A 
153 1 1 0.000000 18.067087 -6.538288 -33.391701 # A 
154 1 1 0.000000 17.467188 -6.283953 -32.641880 # A 
155 1 1 0.000000 17.010696 -6.831768 -33.189507 # A 
156 1 1 0.000000 17.129185 -7.192621 -32.230869 # A 
157 1 1 0.000000 16.847031 -7.561742 -31.379169 # A 
158 1 1 0.000000 17.030014 -8.369622 -31.048470 # A 
159 1 1 0.000000 16.414665 -7.824289 -30.412201 # A 
160 1 1 0.000000 16.112860 -8.777618 -30.606174 # A 
161 1 1 0.000000 15.964132 -8.239700 -31.505825 # A 
162 1 1 0.000000 16.159838 -8.325607 -32.510178 # A 
163 1 1 0.000000 16.971636 -8.325768 -32.162537 # A 
164 1 1 0.000000 17.070244 -7.973151 -32.908039 # A 
165 1 1 0.000000 17.083717 -7.662504 -33.834614 # A 
166 1 1 0.000000 16.152330 -7.683491 -33.346485 # A 
167 1 1 0.000000 15.395520 -7.734622 -33.987461 # A 
168 1 1 0.000000 15.313262 -6.749670 -34.137600 # A 
169 1 1 0.000000 15.223571 -6.066925 -34.929352 # A 
170 1 1 0.000000 15.348065 -5.082568 -35.182228 # A 
171 1 1 0.000000 16.006973 -5.123562 -35.978493 # A 
172 1 1 0.000000 15.522856 -5.634929 -36.655380 # A 
173 1 1 0.000000 16.210930 -5.307752 -37.078251 # A 
174 1 1 0.000000 15.816330 -5.331880 -37.907593 # A 
175 1 1 0.000000 16.715055 -5.002835 -37.982845 # A 
176 1 1 0.000000 17.271906 -5.195837 -37.128983 # A 
177 1 1 0.000000 16.881943 -4.622239 -36.509232 # A 
178 1 1 0.000000 17.632317 -4.205814 -37.243366 # A 
179 1 1 0.000000 17.189377 -3.357360 -37.142910 # A 
180 1 1 0.000000 17.385645 -2.755636 -36.278446 # A 
181 1 1 0.000000 18.221624 -3.127356 -36.475277 # A 
182 1 1 0.000000 17.501986 -3.810936 -36.195759 # A 
183 1 1 0.000000 18.341986 -3.960980 -35.629620 # A 
184 1 1 0.000000 19.067753 -4.592865 -35.811520 # A 
185 1 1 0.000000 19.565718 -4.046308 -35.313545 # A 
186 1 1 0.000000 20.461657 -3.562325 -35.083534 # A 
187 1 1 0.000000 21.315023 -2.941933 -35.123791 # A 
188 1 1 0.000000 21.051636 -3.247349 -35.986050 # A 
189 1 1 0.000000 21.434465 -4.057302 -35.476997 # A 
190 1 1 0.000000 22.144943 -3.302173 -35.652912 # A 
191 1 1 0.000000 22.813787 -4.079459 -35.248394 # A 
192 1 1 0.000000 22.404188 -4.263523 -36.057751 # A 
193 1 1 0.000000 22.660397 -4.375420 -36.932697 # A 
194 1 1 0.000000 22.704132 -5.233513 -36.415169 # A 
195 1 1 0.000000 21.821558 -5.007381 -36.710732 # A 
196 1 1 0.000000 21.379917 -5.102158 -37.443054 # A 
197 1 1 0.000000 21.717548 -5.819695 -37.922112 # A 
198 1 1 0.000000 21.099951 -5.709106 -38.917309 # A 
199 1 1 0.000000 21.477909 -5.452735 -39.746414 # A 
200 1 1 0.000000 22.293156 -4.818583 -39.667915 # A 
201 1 1 0.000000 23.048281 -4.971946 -39.031895 # A 
202 1 1 0.000000 23.304623 -5.348239 -39.652683 # A 
203 1 1 0.000000 23.943850 -4.531020 -39.522774 # A 
204 1 1 0.000000 24.841869 -3.855222 -39.292976 # A 
205 1 1 0.000000 25.858173 -4.263673 -39.475540 # A 
206 1 1 0.000000 26.657749 -3.868827 -39.781185 # A 
207 1 1 0.000000 27.278057 -3.884884 -39.263397 # A 
208 1 1 0.000000 27.625940 -4.678190 -38.457340 # A 
209 1 1 0.000000 28.367363 -4.088951 -38.576599 # A 
210 1 1 0.000000 28.189779 -3.960783 -37.713318 # A 
211 1 1 0.000000 27.586603 -3.447846 -38.321449 # A 
212 1 1 0.000000 27.245995 -2.705065 -38.715565 # A 
213 1 1 0.000000 27.973152 -2.397326 -38.267548 # A 
214 1 1 0.000000 28.132811 -2.076670 -39.189159 # A 
215 1 1 0.000000 27.904644 -2.848321 -39.666092 # A 
216 1 1 0.000000 27.724630 -2.028517 -40.247208 # A 
217 1 1 0.000000 27.212006 -1.413817 -40.866375 # A 
218 1 1 0.000000 26.658745 -1.861557 -40.283955 # A 
219 1 1 0.000000 26.832222 -1.000317 -39.906284 # A 
220 1 1 0.000000 27.089649 -1.797339 -39.349319 # A 
221 1 1 0.000000 26.946819 -0.910110 -38.843468 # A 
222 1 1 0.000000 27.602818 -1.381841 -38.511433 # A 
223 1 1 0.000000 27.980440 -0.563759 -38.784504 # A 
224 1 1 0.000000 27.913500 -1.088737 -39.609722 # A 
225 1 1 0.000000 28.826368 -1.137474 -39.203884 # A 
226 1 1 0.000000 29.627136 -1.688431 -39.246902 # A 
227 1 1 0.000000 29.828121 -0.915134 -38.766994 # A 
228 1 1 0.000000 30.232887 -1.612901 -38.261047 # A 
229 1 1 0.000000 30.791578 -1.537802 -38.915901 # A 
230 1 1 0.000000 31.397686 -1.433410 -38.142643 # A 
231 1 1 0.000000 31.816046 -1.123586 -38.836346 # A 
232 1 1 0.000000 31.876888 -2.114065 -38.802505 # A 
233 1 1 0.000000 32.213688 -1.786926 -39.665245 # A 
234 1 1 0.000000 31.428244 -1.447451 -39.847420 # A 
235 1 1 0.000000 31.558533 -0.606278 -40.000031 # A 
236 1 1 0.000000 31.572758 0.246132 -40.725613 # A 
237 1 1 0.000000 32.253155 0.292846 -40.163303 # A 
238 1 1 0.000000 32.426422 -0.490924 -40.692703 # A 
239 1 1 0.000000 32.571457 -0.359109 -41.586514 # A 
240 1 1 0.000000 33.389767 -0.023789 -40.884678 # A 
241 1 1 0.000000 32.699192 0.606056 -41.091377 # A 
242 1 1 0.000000 32.053162 1.184887 -40.997711 # A 
243 1 1 0.000000 32.554684 1.430886 -40.331341 # A 
244 1 1 0.000000 31.549664 1.128540 -39.976494 # A 
245 1 1 0.000000 30.740820 1.626146 -40.013344 # A 
246 1 1 0.000000 31.056654 1.612071 -40.894650 # A 
247 1 1 0.000000 30.109730 1.581455 -40.931084 # A 
248 1 1 0.000000 29.442368 1.812338 -41.701149 # A 
249 1 1 0.000000 29.257269 0.887199 -41.188896 # A 
250 1 1 0.000000 30.163113 0.906673 -41.789482 # A 
251 1 1 0.000000 30.099632 0.071605 -42.398750 # A 
252 1 1 0.000000 30.174376 -0.534892 -43.196869 # A 
253 1 1 0.000000 29.179262 -0.804107 -43.550922 # A 
254 1 1 0.000000 29.944525 -1.602719 -43.446392 # A 
255 1 1 0.000000 29.601940 -1.109757 -42.533936 # A 
256 1 1 0.000000 29.016447 -1.800389 -43.024784 # A 
257 1 1 0.000000 28.954420 -2.625276 -42.698818 # A 
258 1 1 0.000000 28.193823 -2.907150 -42.071323 # A 
259 1 1 0.000000 27.574509 -2.695366 -41.218658 # A 
260 1 1 0.000000 27.417744 -3.564789 -41.660187 # A 
261 1 1 0.000000 27.525549 -3.662142 -40.638458 # A 
262 1 1 0.000000 27.057600 -3.013314 -40.405647 # A 
263 1 1 0.000000 26.761826 -2.797429 -39.701870 # A 
264 1 1 0.000000 26.114889 -2.422766 -39.173172 # A 
265 1 1 0.000000 25.758392 -3.209805 -39.623188 # A 
266 1 1 0.000000 26.382309 -3.451030 -38.781734 # A 
267 1 1 0.000000 26.575056 -4.355552 -38.488323 # A 
268 1 1 0.000000 27.136812 -4.411279 -37.521168 # A 
269 1 1 0.000000 27.804564 -4.623529 -36.569805 # A 
270 1 1 0.000000 28.095425 -3.658652 -36.540539 # A 
271 1 1 0.000000 27.944468 -4.091480 -35.536774 # A 
272 1 1 0.000000 28.295628 -3.191934 -35.497524 # A 
273 1 1 0.000000 29.057322 -3.307888 -36.065533 # A 
274 1 1 0.000000 29.045744 -4.091577 -35.427349 # A 
275 1 1 0.000000 29.202160 -4.634195 -34.530342 # A 
276 1 1 0.000000 28.287069 -4.608354 -34.617283 # A 
277 1 1 0.000000 27.917980 -5.124840 -33.806343 # A 
278 1 1 0.000000 27.309643 -5.619124 -34.391716 # A 
279 1 1 0.000000 26.615341 -6.195162 -34.527802 # A 
280 1 1 0.000000 27.166613 -6.400332 -33.714931 # A 
281 1 1 0.000000 27.451880 -7.181471 -34.368153 # A 
282 1 1 0.000000 26.992540 -6.976337 -35.142323 # A 
283 1 1 0.000000 26.713760 -6.869582 -35.990234 # A 
284 1 1 0.000000 27.250980 -6.890093 -36.754826 # A 
285 1 1 0.000000 26.777880 -6.083968 -36.869564 # A 
286 1 1 0.000000 26.056406 -6.688671 -36.830639 # A 
287 1 1 0.000000 25.664608 -5.886243 -37.398556 # A 
288 1 1 0.000000 25.819649 -5.205456 -38.205559 # A 
289 1 1 0.000000 26.003578 -5.317452 -39.198406 # A 
290 1 1 0.000000 25.165625 -5.869089 -38.916946 # A 
291 1 1 0.000000 25.030111 -4.801778 -38.872375 # A 
292 1 1 0.000000 25.014599 -5.015201 -39.585785 # A 
293 1 1 0.000000 24.930767 -4.357848 -40.218590 # A 
294 1 1 0.000000 24.723061 -3.450087 -40.311974 # A 
295 1 1 0.000000 23.787197 -2.982886 -40.597958 # A 
296 1 1 0.000000 24.587107 -2.312114 -40.284935 # A 
297 1 1 0.000000 25.277168 -1.608945 -40.570477 # A 
298 1 1 0.000000 26.061827 -0.966651 -40.672737 # A 
299 1 1 0.000000 26.055664 -1.674713 -41.283150 # A 
300 1 1 0.000000 26.074217 -2.566074 -40.920509 # A 
301 1 1 0.000000 26.399809 -3.470494 -41.189190 # A 
302 1 1 0.000000 26.442869 -4.409470 -41.577400 # A 
303 1 1 0.000000 26.073814 -5.505064 -41.588928 # A 
304 1 1 0.000000 26.439566 -6.264923 -41.334114 # A 
305 1 1 0.000000 25.582451 -6.569976 -41.232079 # A 
306 1 1 0.000000 25.277678 -7.291764 -40.491379 # A 
307 1 1 0.000000 24.299501 -7.409758 -40.387539 # A 
308 1 1 0.000000 23.891520 -7.368024 -39.566345 # A 
309 1 1 0.000000 23.821320 -8.245220 -39.876961 # A 
310 1 1 0.000000 23.399258 -8.520783 -40.615215 # A 
311 1 1 0.000000 23.130255 -7.477878 -40.295010 # A 
312 1 1 0.000000 22.701241 -8.207561 -39.836174 # A 
313 1 1 0.000000 22.414019 -8.092885 -40.766964 # A 
314 1 1 0.000000 21.960491 -7.298241 -40.337757 # A 
315 1 1 0.000000 21.047131 -6.559508 -40.630745 # A 
316 1 1 0.000000 19.895458 -6.524064 -40.505260 # A 
317 1 1 0.000000 18.882133 -6.076865 -40.453522 # A 
318 1 1 0.000000 17.919792 -5.665585 -39.936993 # A 
319 1 1 0.000000 18.014162 -5.425624 -38.955368 # A 
320 1 1 0.000000 17.932787 -4.962625 -38.045307 # A 
321 1 1 0.000000 18.590063 -4.528773 -37.628437 # A 
322 1 1 0.000000 19.157278 -5.099794 -36.837936 # A 
323 1 1 0.000000 18.308613 -5.350890 -36.946186 # A 
324 1 1 0.000000 18.003925 -4.748889 -36.308857 # A 
325 1 1 0.000000 18.652002 -4.093876 -36.649590 # A 
326 1 1 0.000000 19.175955 -3.428945 -36.061302 # A 
327 1 1 0.000000 20.005859 -3.156159 -36.000381 # A 
328 1 1 0.000000 20.343616 -2.464965 -35.451756 # A 
329 1 1 0.000000 20.031637 -1.530320 -35.521076 # A 
330 1 1 0.000000 19.919752 -1.022467 -36.390038 # A 
331 1 1 0.000000 20.191059 -1.587591 -37.322281 # A 
332 1 1 0.000000 20.306358 -1.907703 -38.228695 # A 
333 1 1 0.000000 20.752197 -2.799177 -37.981159 # A 
334 1 1 0.000000 20.156279 -2.759124 -38.876377 # A 
335 1 1 0.000000 19.966646 -1.788983 -39.284042 # A 
336 1 1 0.000000 19.234409 -2.347613 -39.417557 # A 
337 1 1 0.000000 18.465450 -2.520561 -39.966095 # A 
338 1 1 0.000000 18.631598 -2.274001 -40.921520 # A 
339 1 1 0.000000 18.973661 -1.607534 -41.617088 # A 
340 1 1 0.000000 19.805138 -1.141646 -41.867130 # A 
341 1 1 0.000000 20.053089 -1.893529 -41.272472 # A 
342 1 1 0.000000 21.130911 -2.250844 -41.061199 # A 
343 1 1 0.000000 21.730629 -2.880032 -40.802002 # A 
344 1 1 0.000000 21.029997 -3.379152 -41.267632 # A 
345 1 1 0.000000 21.844967 -3.671890 -41.586403 # A 
346 1 1 0.000000 22.121300 -4.675113 -41.206272 # A 
347 1 1 0.000000 21.243717 -4.699393 -41.621868 # A 
348 1 1 0.000000 20.795792 -5.555319 -41.467232 # A 
349 1 1 0.000000 21.439869 -5.405276 -40.782677 # A 
350 1 1 0.000000 21.913387 -5.739714 -41.327099 # A 
351 1 1 0.000000 21.971006 -6.644355 -41.156689 # A 
352 1 1 0.000000 22.652296 -7.150406 -41.242496 # A 
353 1 1 0.000000 23.469206 -7.661836 -41.293518 # A 
354 1 1 0.000000 23.699802 -6.748995 -41.033596 # A 
355 1 1 0.000000 24.632996 -7.205560 -41.389175 # A 
356 1 1 0.000000 24.655617 -6.423656 -40.685310 # A 
357 1 1 0.000000 24.270750 -5.658336 -40.176060 # A 
358 1 1 0.000000 25.176889 -5.417919 -40.653179 # A 
359 1 1 0.000000 25.665361 -6.156888 -40.196533 # A 
360 1 1 0.000000 26.324776 -6.963596 -40.505386 # A 
361 1 1 0.000000 27.437737 -7.032400 -40.848705 # A 
362 1 1 0.000000 28.379368 -7.024381 -40.535625 # A 
363 1 1 0.000000 28.392920 -6.611291 -39.670017 # A 
364 1 1 0.000000 29.187931 -6.411957 -40.171467 # A 
365 1 1 0.000000 29.987591 -6.551016 -40.715397 # A 
366 1 1 0.000000 29.114418 -6.529804 -41.242958 # A 
367 1 1 0.000000 29.612598 -6.173934 -42.089676 # A 
368 1 1 0.000000 30.213833 -5.595729 -42.674751 # A 
369 1 1 0.000000 29.524544 -6.056725 -43.256783 # A 
370 1 1 0.000000 28.792364 -5.814429 -43.956234 # A 
371 1 1 0.000000 28.681662 -5.125349 -44.648666 # A 
372 1 1 0.000000 28.318645 -4.369379 -44.232498 # A 
373 1 1 0.000000 27.891518 -3.533240 -44.723568 # A 
374 1 1 0.000000 28.631495 -3.955003 -45.292877 # A 
375 1 1 0.000000 28.021652 -3.470297 -45.802917 # A 
376 1 1 0.000000 28.215525 -2.671036 -45.336834 # A 
377 1 1 0.000000 29.075832 -2.939262 -45.245583 # A 
378 1 1 0.000000 29.060604 -2.088582 -44.869690 # A 
379 1 1 0.000000 28.513296 -1.498551 -44.294960 # A 
380 1 1 0.000000 27.951416 -0.944276 -43.843426 # A 
381 1 1 0.000000 27.795450 -1.040578 -42.962097 # A 
382 1 1 0.000000 28.538036 -0.913233 -42.574730 # A 
383 1 1 0.000000 28.254623 -1.856016 -42.248165 # A 
384 1 1 0.000000 28.226364 -1.029556 -41.508144 # A 
385 1 1 0.000000 27.522142 -1.149098 -41.910305 # A 
386 1 1 0.000000 27.845240 -0.242772 -42.192490 # A 
387 1 1 0.000000 26.844027 -0.355296 -42.265472 # A 
388 1 1 0.000000 27.184906 -0.295879 -41.309586 # A 
389 1 1 0.000000 27.095598 0.676033 -41.900005 # A 
390 1 1 0.000000 26.475302 1.340379 -42.634178 # A 
391 1 1 0.000000 26.331211 2.113667 -43.426521 # A 
392 1 1 0.000000 25.560869 1.909934 -43.027851 # A 
393 1 1 0.000000 25.140747 2.276952 -43.944695 # A 
394 1 1 0.000000 24.426662 2.234408 -44.717899 # A 
395 1 1 0.000000 24.251886 2.986894 -44.116726 # A 
396 1 1 0.000000 24.598228 3.558353 -43.350170 # A 
397 1 1 0.000000 24.687202 2.727440 -43.080757 # A 
398 1 1 0.000000 23.866457 2.612565 -43.151096 # A 
399 1 1 0.000000 23.498875 3.529563 -43.529480 # A 
400 1 1 0.000000 23.805935 3.548773 -42.587624 # A 
401 1 1 0.000000 22.915113 3.739841 -42.255039 # A 
402 1 1 0.000000 22.848843 2.962961 -42.830551 # A 
403 1 1 0.000000 22.941153 2.604997 -43.744862 # A 
404 1 1 0.000000 22.477428 1.927839 -44.293709 # A 
405 1 1 0.000000 23.275955 2.117043 -44.718143 # A 
406 1 1 0.000000 23.656942 1.435755 -45.479092 # A 
407 1 1 0.000000 23.095552 1.909015 -46.098598 # A 
408 1 1 0.000000 23.750502 2.577425 -45.548908 # A 
409 1 1 0.000000 23.457027 3.051249 -46.412979 # A 
410 1 1 0.000000 23.031624 3.378349 -45.497742 # A 
411 1 1 0.000000 22.471806 2.833413 -46.006523 # A 
412 1 1 0.000000 22.074800 3.618382 -46.058319 # A 
413 1 1 0.000000 22.889868 4.028155 -46.389053 # A 
414 1 1 0.000000 22.553329 3.320634 -47.011574 # A 
415 1 1 0.000000 23.250328 2.884966 -47.447739 # A 
416 1 1 0.000000 23.603144 2.201184 -48.065041 # A 
417 1 1 0.000000 22.860556 1.978636 -48.476006 # A 
418 1 1 0.000000 22.271017 1.202696 -47.879269 # A 
419 1 1 0.000000 22.626688 1.907943 -47.382046 # A 
420 1 1 0.000000 23.119967 1.025810 -47.077026 # A 
421 1 1 0.000000 23.641560 1.910544 -47.023628 # A 
422 1 1 0.000000 24.206764 2.169785 -46.423798 # A 
423 1 1 0.000000 24.488466 1.247183 -46.739727 # A 
424 1 1 0.000000 25.011145 1.539251 -47.691853 # A 
425 1 1 0.000000 24.753283 0.553487 -48.077579 # A 
426 1 1 0.000000 25.081877 0.017815 -48.788387 # A 
427 1 1 0.000000 24.829849 0.923177 -49.258957 # A 
428 1 1 0.000000 24.871868 1.744445 -49.787914 # A 
429 1 1 0.000000 25.022018 1.910704 -48.835041 # A 
430 1 1 0.000000 24.279301 1.487094 -48.456223 # A 
431 1 1 0.000000 23.965384 1.157172 -47.651508 # A 
432 1 1 0.000000 23.287012 1.014700 -48.141399 # A 
433 1 1 0.000000 23.450361 1.341495 -49.148136 # A 
434 1 1 0.000000 23.938828 2.117888 -49.218727 # A 
435 1 1 0.000000 23.698599 2.557733 -50.122498 # A 
436 1 1 0.000000 23.177757 2.800109 -51.180271 # A 
437 1 1 0.000000 24.089853 2.449145 -51.106911 # A 
438 1 1 0.000000 24.479555 1.632985 -51.536526 # A 
439 1 1 0.000000 25.023157 1.294538 -52.234249 # A 
440 1 1 0.000000 24.403236 1.675951 -52.763577 # A 
441 1 1 0.000000 24.933125 2.371387 -52.237820 # A 
442 1 1 0.000000 25.487585 2.755270 -52.957970 # A 
443 1 1 0.000000 26.163067 3.113762 -53.592373 # A 
444 1 1 0.000000 26.650082 3.001061 -54.566692 # A 
445 1 1 0.000000 27.399420 2.732690 -55.044323 # A 
446 1 1 0.000000 27.629950 3.465857 -54.598869 # A 
447 1 1 0.000000 27.244930 3.820066 -55.399220 # A 
448 1 1 0.000000 28.167055 3.355657 -55.630802 # A 
449 1 1 0.000000 28.382954 4.104713 -55.062904 # A 
450 1 1 0.000000 28.749035 4.789652 -54.460526 # A 
451 1 1 0.000000 28.030193 5.313161 -53.974121 # A 
452 1 1 0.000000 27.645561 4.563897 -54.403290 # A 
453 1 1 0.000000 26.908247 4.942362 -54.049198 # A 
454 1 1 0.000000 26.764355 3.923992 -54.047928 # A 
455 1 1 0.000000 26.199070 4.267895 -53.494896 # A 
456 1 1 0.000000 25.622482 3.890733 -53.011276 # A 
457 1 1 0.000000 24.779778 3.389549 -53.421494 # A 
458 1 1 0.000000 24.791147 3.501781 -52.468636 # A 
459 1 1 0.000000 24.803679 3.172134 -51.511112 # A 
460 1 1 0.000000 25.402790 3.310209 -50.884987 # A 
461 1 1 0.000000 25.924450 4.150451 -50.404743 # A 
462 1 1 0.000000 25.632183 4.706596 -49.644222 # A 
463 1 1 0.000000 25.690041 5.740670 -49.445011 # A 
464 1 1 0.000000 25.930738 5.463758 -50.328770 # A 
465 1 1 0.000000 25.714531 4.881912 -51.135303 # A 
466 1 1 0.000000 25.947182 4.070041 -51.526047 # A 
467 1 1 0.000000 25.747063 3.267365 -51.977463 # A 
468 1 1 0.000000 26.185131 2.815649 -51.472416 # A 
469 1 1 0.000000 26.616476 3.384934 -50.843052 # A 
470 1 1 0.000000 27.298199 2.602659 -50.870644 # A 
471 1 1 0.000000 26.314348 2.345821 -50.497917 # A 
472 1 1 0.000000 27.024847 2.151572 -49.883041 # A 
473 1 1 0.000000 27.085880 1.521061 -50.670105 # A 
474 1 1 0.000000 26.586252 0.689600 -51.147320 # A 
475 1 1 0.000000 26.158117 -0.263800 -51.435551 # A 
476 1 1 0.000000 25.626278 0.437573 -51.788116 # A 
477 1 1 0.000000 25.670200 -0.089126 -52.599171 # A 
478 1 1 0.000000 25.226505 0.037365 -53.542000 # A 
479 1 1 0.000000 25.085529 0.117401 -54.569294 # A 
480 1 1 0.000000 25.248739 1.032092 -55.026627 # A 
481 1 1 0.000000 25.757910 1.834907 -55.460316 # A 
482 1 1 0.000000 26.368103 2.564032 -55.531929 # A 
483 1 1 0.000000 27.116419 2.935557 -56.116234 # A 
484 1 1 0.000000 26.184084 2.868175 -56.602459 # A 
485 1 1 0.000000 25.180456 3.123744 -56.952209 # A 
486 1 1 0.000000 24.326492 2.992845 -57.486172 # A 
487 1 1 0.000000 23.587391 2.754329 -56.900364 # A 
488 1 1 0.000000 23.516993 3.716731 -57.197632 # A 
489 1 1 0.000000 24.252138 3.615447 -56.580597 # A 
490 1 1 0.000000 23.465679 3.478195 -56.061039 # A 
491 1 1 0.000000 22.986300 3.298241 -55.239223 # A 
492 1 1 0.000000 22.154949 2.919519 -54.821289 # A 
493 1 1 0.000000 21.741648 2.819037 -54.112812 # A 
494 1 1 0.000000 22.034708 3.423918 -53.731403 # A 
495 1 1 0.000000 22.795799 3.470788 -54.136559 # A 
496 1 1 0.000000 23.596619 3.913417 -53.818169 # A 
497 1 1 0.000000 23.807148 3.738368 -52.926315 # A 
498 1 1 0.000000 22.864676 3.573610 -53.035065 # A 
499 1 1 0.000000 23.097162 3.030736 -52.491028 # A 
500 1 1 0.000000 23.817682 3.246538 -51.979504 # A 
501 1 1 0.000000 23.842258 2.329138 -52.151096 # A 
502 1 1 0.000000 24.134806 2.694376 -52.910324 # A 
503 1 1 0.000000 23.524090 2.859818 -53.544411 # A 
504 1 1 0.000000 22.781225 2.341192 -54.072651 # A 
505 1 1 0.000000 22.407734 2.602408 -53.217255 # A 
506 1 1 0.000000 23.252373 2.002901 -53.019238 # A 
507 1 1 0.000000 22.469696 1.437491 -53.355946 # A 
508 1 1 0.000000 21.773123 1.790442 -53.866829 # A 
509 1 1 0.000000 21.348444 1.023281 -53.671001 # A 
510 1 1 0.000000 21.036175 1.256541 -54.556381 # A 
511 1 1 0.000000 20.937115 2.126266 -54.477261 # A 
512 1 1 0.000000 20.010473 1.723721 -54.354389 # A 
513 1 1 0.000000 19.993362 2.740716 -54.535618 # A 
514 1 1 0.000000 19.550371 3.542896 -54.028667 # A 
515 1 1 0.000000 18.603041 4.020113 -54.269276 # A 
516 1 1 0.000000 18.759956 4.944890 -54.067436 # A 
517 1 1 0.000000 19.045187 5.763815 -54.514896 # A 
518 1 1 0.000000 17.923374 5.551672 -54.332230 # A 
519 1 1 0.000000 18.508736 5.878489 -53.536716 # A 
520 1 1 0.000000 17.990988 5.256244 -53.298347 # A 
521 1 1 0.000000 18.221186 4.469343 -53.279667 # A 
522 1 1 0.000000 17.525042 4.471804 -54.031357 # A 
523 1 1 0.000000 17.738537 4.029119 -54.978607 # A 
524 1 1 0.000000 17.743446 3.225170 -55.533566 # A 
525 1 1 0.000000 17.142992 2.337657 -55.785748 # A 
526 1 1 0.000000 17.853195 2.591418 -56.457348 # A 
527 1 1 0.000000 18.567368 2.910180 -57.061920 # A 
528 1 1 0.000000 19.105467 3.755905 -57.330715 # A 
529 1 1 0.000000 18.155367 3.890524 -57.271305 # A 
530 1 1 0.000000 17.447025 4.121914 -57.848309 # A 
531 1 1 0.000000 17.696943 4.033299 -58.650269 # A 
532 1 1 0.000000 17.196478 4.446696 -59.278053 # A 
533 1 1 0.000000 16.717344 5.107347 -60.131184 # A 
534 1 1 0.000000 17.652878 4.799667 -60.211163 # A 
535 1 1 0.000000 18.253193 4.607111 -60.634506 # A 
536 1 1 0.000000 18.904411 4.125481 -60.226322 # A 
537 1 1 0.000000 18.648325 3.657986 -61.008595 # A 
538 1 1 0.000000 17.549183 3.841643 -60.776863 # A 
539 1 1 0.000000 16.661144 3.600406 -61.082821 # A 
540 1 1 0.000000 15.752754 3.627572 -61.099827 # A 
541 1 1 0.000000 15.658701 3.422560 -60.404205 # A 
542 1 1 0.000000 15.220470 3.079213 -60.114452 # A 
543 1 1 0.000000 14.670075 3.004557 -59.483562 # A 
544 1 1 0.000000 14.128017 3.314943 -60.262302 # A 
545 1 1 0.000000 14.165006 4.306408 -59.922417 # A 
546 1 1 0.000000 14.971766 4.032695 -59.710869 # A 
547 1 1 0.000000 14.364559 3.918880 -58.896381 # A 
548 1 1 0.000000 13.895893 3.805670 -57.980965 # A 
549 1 1 0.000000 13.963698 2.954937 -58.592834 # A 
550 1 1 0.000000 13.280320 2.840379 -58.003052 # A 
551 1 1 0.000000 13.514726 3.344924 -57.110394 # A 
552 1 1 0.000000 13.469777 4.315630 -56.823185 # A 
553 1 1 0.000000 14.303605 4.608094 -57.287258 # A 
554 1 1 0.000000 13.721981 5.316171 -56.888062 # A 
555 1 1 0.000000 14.228763 6.082083 -57.274693 # A 
556 1 1 0.000000 15.244650 5.928149 -57.612556 # A 
557 1 1 0.000000 14.482984 5.923956 -58.259647 # A 
558 1 1 0.000000 14.150687 6.701966 -58.723518 # A 
559 1 1 0.000000 13.214108 6.811139 -59.016804 # A 
560 1 1 0.000000 13.349042 7.031771 -58.065639 # A 
561 1 1 0.000000 12.405192 7.205628 -58.335361 # A 
562 1 1 0.000000 12.649840 6.257927 -58.256039 # A 
563 1 1 0.000000 13.092936 6.113601 -57.425449 # A 