LAMMPS data file. CGCMM style. atom_style full generated by VMD/TopoTools v1.7 on Mon Aug 06 12:03:40 EDT 2018
 24000 atoms
 23999 bonds
 23998 angles
 0 dihedrals
 0 impropers
 1 atom types
 1 bond types
 1 angle types
 0 dihedral types
 0 improper types
 31.485391 94.592744  xlo xhi
 6.329111 69.436464  ylo yhi
 -17.395912 45.711441  zlo zhi

# Pair Coeffs
#
# 1  A

# Bond Coeffs
#
# 1  polymer

# Angle Coeffs
#
# 1  A-A-A

 Masses

 1 1.000000 # A

 Atoms # full

1 1 1 0.000000 15.123529 -3.932415 -21.270134 # A 
2 1 1 0.000000 15.812872 -3.346349 -21.692205 # A 
3 1 1 0.000000 15.759709 -4.176178 -22.219246 # A 
4 1 1 0.000000 15.894237 -4.644987 -21.512840 # A 
5 1 1 0.000000 15.429396 -5.029893 -20.861712 # A 
6 1 1 0.000000 15.732653 -6.024324 -20.952288 # A 
7 1 1 0.000000 16.125141 -5.467500 -20.142374 # A 
8 1 1 0.000000 17.148319 -5.447408 -20.298813 # A 
9 1 1 0.000000 16.611910 -5.345254 -21.145830 # A 
10 1 1 0.000000 16.543865 -4.542529 -20.605980 # A 
11 1 1 0.000000 15.816975 -4.328297 -20.162163 # A 
12 1 1 0.000000 15.390429 -3.483022 -19.758785 # A 
13 1 1 0.000000 15.199391 -2.465060 -19.623150 # A 
14 1 1 0.000000 14.820621 -1.577684 -19.435205 # A 
15 1 1 0.000000 15.056002 -0.773820 -19.345497 # A 
16 1 1 0.000000 14.438570 -0.909653 -18.660854 # A 
17 1 1 0.000000 14.252258 -0.497239 -18.254156 # A 
18 1 1 0.000000 14.303711 0.033379 -17.797859 # A 
19 1 1 0.000000 15.157689 0.132499 -17.439545 # A 
20 1 1 0.000000 15.311250 -0.230265 -18.450029 # A 
21 1 1 0.000000 14.962742 0.758977 -18.351458 # A 
22 1 1 0.000000 15.219433 0.404907 -19.336168 # A 
23 1 1 0.000000 14.450809 0.103371 -19.088810 # A 
24 1 1 0.000000 14.301066 0.955127 -19.159451 # A 
25 1 1 0.000000 13.680941 0.648857 -18.488899 # A 
26 1 1 0.000000 13.269329 -0.132798 -18.160063 # A 
27 1 1 0.000000 13.486475 -0.360562 -19.007568 # A 
28 1 1 0.000000 14.041627 -0.740083 -19.717512 # A 
29 1 1 0.000000 14.594387 -0.524592 -20.450554 # A 
30 1 1 0.000000 14.509117 0.345912 -20.167665 # A 
31 1 1 0.000000 14.995687 1.156343 -20.062860 # A 
32 1 1 0.000000 15.059220 1.161796 -21.033396 # A 
33 1 1 0.000000 15.277977 1.751288 -21.815142 # A 
34 1 1 0.000000 15.870903 1.385448 -22.570436 # A 
35 1 1 0.000000 16.328087 2.104921 -22.116474 # A 
36 1 1 0.000000 17.338957 2.215121 -22.423307 # A 
37 1 1 0.000000 18.238503 2.355850 -22.310715 # A 
38 1 1 0.000000 17.882242 2.138475 -21.438072 # A 
39 1 1 0.000000 17.931376 2.376414 -20.446711 # A 
40 1 1 0.000000 18.164787 1.427631 -20.599136 # A 
41 1 1 0.000000 18.874092 1.014831 -19.989864 # A 
42 1 1 0.000000 18.841820 1.998532 -19.893215 # A 
43 1 1 0.000000 19.737413 1.598028 -19.796181 # A 
44 1 1 0.000000 20.230045 1.453307 -18.934244 # A 
45 1 1 0.000000 20.412418 0.714628 -19.515743 # A 
46 1 1 0.000000 21.203966 0.330325 -19.216696 # A 
47 1 1 0.000000 21.028599 0.847971 -18.408018 # A 
48 1 1 0.000000 21.237339 1.438270 -19.344231 # A 
49 1 1 0.000000 20.726055 1.594729 -20.308001 # A 
50 1 1 0.000000 20.592842 1.957387 -21.372946 # A 
51 1 1 0.000000 20.446384 2.251674 -22.394135 # A 
52 1 1 0.000000 20.022923 1.967055 -23.325457 # A 
53 1 1 0.000000 20.177418 2.447832 -24.071390 # A 
54 1 1 0.000000 19.836174 2.137811 -24.715466 # A 
55 1 1 0.000000 20.472244 1.579446 -25.199774 # A 
56 1 1 0.000000 19.737963 1.065630 -24.922710 # A 
57 1 1 0.000000 20.450605 1.355254 -24.094435 # A 
58 1 1 0.000000 21.085804 2.059248 -24.505507 # A 
59 1 1 0.000000 21.082254 2.192398 -23.496740 # A 
60 1 1 0.000000 20.550682 3.046807 -23.215277 # A 
61 1 1 0.000000 19.615192 3.054301 -23.384192 # A 
62 1 1 0.000000 19.368675 2.499434 -22.717962 # A 
63 1 1 0.000000 18.553957 2.777322 -23.275564 # A 
64 1 1 0.000000 19.052755 2.251655 -23.934050 # A 
65 1 1 0.000000 19.314386 1.380949 -23.976946 # A 
66 1 1 0.000000 19.714481 0.556629 -23.887638 # A 
67 1 1 0.000000 20.381365 0.267143 -24.546978 # A 
68 1 1 0.000000 19.390659 0.017037 -24.827549 # A 
69 1 1 0.000000 18.875130 -0.457156 -24.299089 # A 
70 1 1 0.000000 18.484507 -0.875744 -23.613300 # A 
71 1 1 0.000000 18.664276 -0.205164 -22.990206 # A 
72 1 1 0.000000 18.092356 -1.048123 -22.599669 # A 
73 1 1 0.000000 17.452827 -1.286714 -23.523359 # A 
74 1 1 0.000000 17.499931 -0.385079 -23.205130 # A 
75 1 1 0.000000 16.641186 0.033950 -23.232561 # A 
76 1 1 0.000000 16.914499 -0.392829 -24.144733 # A 
77 1 1 0.000000 16.703159 -0.757526 -25.040583 # A 
78 1 1 0.000000 17.111513 -1.416764 -25.656216 # A 
79 1 1 0.000000 17.376034 -1.580452 -24.687119 # A 
80 1 1 0.000000 17.882902 -0.975835 -24.539314 # A 
81 1 1 0.000000 17.758833 -0.592495 -25.326973 # A 
82 1 1 0.000000 18.668535 -0.889733 -25.287037 # A 
83 1 1 0.000000 18.178185 -1.691897 -25.503281 # A 
84 1 1 0.000000 18.442606 -2.040166 -26.395884 # A 
85 1 1 0.000000 17.585131 -2.342958 -26.193567 # A 
86 1 1 0.000000 18.234325 -3.172457 -26.646431 # A 
87 1 1 0.000000 18.958920 -2.699374 -27.173584 # A 
88 1 1 0.000000 19.317059 -2.167617 -28.044209 # A 
89 1 1 0.000000 20.130863 -2.341209 -27.829401 # A 
90 1 1 0.000000 20.585890 -1.894419 -27.159254 # A 
91 1 1 0.000000 20.515450 -2.938686 -26.992737 # A 
92 1 1 0.000000 20.719862 -3.863439 -26.577303 # A 
93 1 1 0.000000 20.886759 -4.726140 -26.013237 # A 
94 1 1 0.000000 21.495777 -5.588596 -25.587826 # A 
95 1 1 0.000000 20.721411 -5.707089 -24.964756 # A 
96 1 1 0.000000 20.670645 -6.457892 -24.253815 # A 
97 1 1 0.000000 21.294617 -6.677354 -24.974504 # A 
98 1 1 0.000000 20.864098 -6.439214 -25.856014 # A 
99 1 1 0.000000 21.645943 -6.732009 -26.353800 # A 
100 1 1 0.000000 22.317944 -7.415881 -26.923016 # A 
101 1 1 0.000000 22.035908 -8.093493 -27.560171 # A 
102 1 1 0.000000 22.398605 -8.747138 -28.103575 # A 
103 1 1 0.000000 22.931471 -8.779519 -27.252676 # A 
104 1 1 0.000000 22.383245 -8.534827 -26.572899 # A 
105 1 1 0.000000 22.955397 -7.729814 -26.112301 # A 
106 1 1 0.000000 22.758320 -8.382151 -25.505678 # A 
107 1 1 0.000000 21.839376 -8.175076 -25.698637 # A 
108 1 1 0.000000 21.779669 -8.216680 -24.683012 # A 
109 1 1 0.000000 21.802401 -8.830614 -23.741030 # A 
110 1 1 0.000000 22.118519 -7.931697 -23.688604 # A 
111 1 1 0.000000 22.880886 -7.605288 -23.472481 # A 
112 1 1 0.000000 23.231699 -6.737309 -23.650951 # A 
113 1 1 0.000000 23.766443 -6.320273 -24.417551 # A 
114 1 1 0.000000 23.175652 -6.158609 -25.371691 # A 
115 1 1 0.000000 23.596792 -5.527991 -25.965355 # A 
116 1 1 0.000000 23.713310 -4.661856 -26.584332 # A 
117 1 1 0.000000 23.541746 -4.773054 -27.395462 # A 
118 1 1 0.000000 23.801657 -5.759070 -27.057240 # A 
119 1 1 0.000000 23.457779 -5.766559 -27.936760 # A 
120 1 1 0.000000 24.413403 -5.469126 -27.904564 # A 
121 1 1 0.000000 24.618660 -4.959597 -27.154734 # A 
122 1 1 0.000000 24.397810 -4.392405 -28.010067 # A 
123 1 1 0.000000 24.234035 -3.507212 -28.607140 # A 
124 1 1 0.000000 23.480494 -3.270536 -29.224258 # A 
125 1 1 0.000000 23.172651 -2.334685 -29.000141 # A 
126 1 1 0.000000 22.309628 -2.426860 -29.202976 # A 
127 1 1 0.000000 22.383276 -1.895725 -28.429985 # A 
128 1 1 0.000000 21.580547 -2.437685 -28.336340 # A 
129 1 1 0.000000 20.895493 -2.999291 -28.096066 # A 
130 1 1 0.000000 20.135504 -3.464319 -28.639071 # A 
131 1 1 0.000000 20.150934 -3.260382 -29.657137 # A 
132 1 1 0.000000 20.877146 -2.872157 -30.214197 # A 
133 1 1 0.000000 21.805326 -3.069745 -29.851494 # A 
134 1 1 0.000000 22.481628 -3.580618 -29.385050 # A 
135 1 1 0.000000 22.130747 -4.003112 -30.187496 # A 
136 1 1 0.000000 22.046089 -4.929820 -30.204027 # A 
137 1 1 0.000000 21.544230 -5.818113 -30.355181 # A 
138 1 1 0.000000 21.011103 -6.397141 -30.995871 # A 
139 1 1 0.000000 20.516796 -6.241366 -30.096310 # A 
140 1 1 0.000000 20.604109 -6.114348 -29.059280 # A 
141 1 1 0.000000 20.338551 -5.395193 -28.579433 # A 
142 1 1 0.000000 19.885677 -4.552436 -28.073818 # A 
143 1 1 0.000000 19.293474 -5.506083 -28.372459 # A 
144 1 1 0.000000 19.776535 -5.537121 -27.638054 # A 
145 1 1 0.000000 19.898947 -6.381027 -28.155294 # A 
146 1 1 0.000000 19.143660 -6.513385 -28.692446 # A 
147 1 1 0.000000 18.402975 -6.974642 -29.034975 # A 
148 1 1 0.000000 17.468052 -6.590636 -28.818754 # A 
149 1 1 0.000000 16.816063 -6.916765 -29.596664 # A 
150 1 1 0.000000 16.870592 -7.692846 -30.041258 # A 
151 1 1 0.000000 17.810732 -6.931726 -29.985518 # A 
152 1 1 0.000000 17.191189 -6.841075 -30.735218 # A 
153 1 1 0.000000 16.893526 -6.865233 -31.627369 # A 
154 1 1 0.000000 16.221401 -6.347908 -31.209652 # A 
155 1 1 0.000000 16.252941 -7.288493 -30.807270 # A 
156 1 1 0.000000 15.893623 -6.542549 -30.176428 # A 
157 1 1 0.000000 15.702445 -6.980899 -29.350733 # A 
158 1 1 0.000000 16.348303 -6.873782 -28.578279 # A 
159 1 1 0.000000 16.050827 -7.853118 -28.625322 # A 
160 1 1 0.000000 15.400590 -8.101672 -29.403482 # A 
161 1 1 0.000000 15.304341 -7.511999 -30.295231 # A 
162 1 1 0.000000 15.366420 -6.984747 -31.340576 # A 
163 1 1 0.000000 15.485526 -8.002911 -31.226728 # A 
164 1 1 0.000000 16.121197 -7.588818 -31.817257 # A 
165 1 1 0.000000 15.780666 -8.149464 -32.185326 # A 
166 1 1 0.000000 15.000473 -7.659059 -32.219536 # A 
167 1 1 0.000000 14.385621 -7.222209 -32.359005 # A 
168 1 1 0.000000 14.012749 -6.454731 -32.854240 # A 
169 1 1 0.000000 13.485892 -5.594872 -33.164146 # A 
170 1 1 0.000000 13.815333 -6.228210 -33.838608 # A 
171 1 1 0.000000 14.552347 -5.650528 -33.473133 # A 
172 1 1 0.000000 14.165587 -5.308060 -34.319553 # A 
173 1 1 0.000000 14.050759 -4.402952 -35.009781 # A 
174 1 1 0.000000 13.627619 -4.438539 -36.030083 # A 
175 1 1 0.000000 14.531602 -4.000476 -35.890923 # A 
176 1 1 0.000000 15.037858 -4.184480 -35.283432 # A 
177 1 1 0.000000 15.505892 -3.404722 -35.788818 # A 
178 1 1 0.000000 15.867445 -3.137278 -34.940952 # A 
179 1 1 0.000000 15.224000 -3.416579 -34.402630 # A 
180 1 1 0.000000 15.812989 -2.897357 -33.852859 # A 
181 1 1 0.000000 16.711393 -2.935370 -33.124123 # A 
182 1 1 0.000000 17.740419 -3.256330 -32.928085 # A 
183 1 1 0.000000 17.995396 -3.510378 -33.887821 # A 
184 1 1 0.000000 18.814144 -3.856424 -33.370865 # A 
185 1 1 0.000000 19.628693 -4.078034 -33.501652 # A 
186 1 1 0.000000 19.516575 -3.122061 -32.972504 # A 
187 1 1 0.000000 20.035120 -3.040260 -33.717655 # A 
188 1 1 0.000000 19.587561 -3.578931 -34.476627 # A 
189 1 1 0.000000 20.483358 -3.770813 -34.386822 # A 
190 1 1 0.000000 21.124987 -3.188586 -33.923527 # A 
191 1 1 0.000000 21.605141 -3.950110 -34.057045 # A 
192 1 1 0.000000 21.416636 -3.505031 -34.927929 # A 
193 1 1 0.000000 21.465466 -4.066225 -35.757351 # A 
194 1 1 0.000000 20.807949 -4.513451 -35.175182 # A 
195 1 1 0.000000 19.898376 -4.812120 -35.682049 # A 
196 1 1 0.000000 19.713385 -5.765127 -35.793224 # A 
197 1 1 0.000000 19.062498 -5.837259 -36.687149 # A 
198 1 1 0.000000 19.661884 -4.979226 -36.667191 # A 
199 1 1 0.000000 19.330414 -5.163403 -37.483727 # A 
200 1 1 0.000000 20.235939 -5.173708 -37.552876 # A 
201 1 1 0.000000 21.189718 -4.698949 -37.566898 # A 
202 1 1 0.000000 21.706858 -4.183276 -36.884823 # A 
203 1 1 0.000000 22.845270 -4.189387 -37.060093 # A 
204 1 1 0.000000 23.907387 -3.869729 -37.131176 # A 
205 1 1 0.000000 24.964119 -3.472261 -37.348225 # A 
206 1 1 0.000000 25.390133 -3.964876 -38.007080 # A 
207 1 1 0.000000 26.264738 -4.036343 -37.995007 # A 
208 1 1 0.000000 27.061689 -4.111848 -37.862316 # A 
209 1 1 0.000000 26.853388 -3.503615 -37.207001 # A 
210 1 1 0.000000 27.288151 -2.574052 -36.876053 # A 
211 1 1 0.000000 26.648964 -2.359644 -36.247463 # A 
212 1 1 0.000000 26.286995 -1.724960 -36.897942 # A 
213 1 1 0.000000 26.995691 -1.559448 -36.916328 # A 
214 1 1 0.000000 27.805595 -1.444939 -36.267437 # A 
215 1 1 0.000000 28.079958 -1.881958 -37.123379 # A 
216 1 1 0.000000 27.512457 -1.811342 -37.884853 # A 
217 1 1 0.000000 26.867126 -1.451553 -38.450535 # A 
218 1 1 0.000000 26.290964 -1.509074 -37.948231 # A 
219 1 1 0.000000 25.709129 -1.006964 -37.541031 # A 
220 1 1 0.000000 24.815514 -0.606536 -37.404415 # A 
221 1 1 0.000000 25.476583 -0.364710 -36.576153 # A 
222 1 1 0.000000 26.297787 -0.673768 -36.633125 # A 
223 1 1 0.000000 26.736626 -0.697923 -37.463993 # A 
224 1 1 0.000000 27.350140 0.115747 -37.272430 # A 
225 1 1 0.000000 27.467567 -0.524902 -38.186287 # A 
226 1 1 0.000000 28.251894 -0.948439 -37.880547 # A 
227 1 1 0.000000 27.796907 -0.865652 -37.188896 # A 
228 1 1 0.000000 28.779287 -1.036023 -36.931896 # A 
229 1 1 0.000000 29.551920 -1.207209 -36.454868 # A 
230 1 1 0.000000 29.812401 -0.702520 -37.238876 # A 
231 1 1 0.000000 30.723579 -0.836386 -37.411148 # A 
232 1 1 0.000000 30.694740 -1.698203 -37.725647 # A 
233 1 1 0.000000 30.850565 -1.026701 -38.536526 # A 
234 1 1 0.000000 29.964493 -0.823150 -38.306839 # A 
235 1 1 0.000000 30.139429 -0.183621 -39.158241 # A 
236 1 1 0.000000 29.718534 0.619680 -39.463486 # A 
237 1 1 0.000000 30.210665 0.813132 -38.540592 # A 
238 1 1 0.000000 30.755789 0.759685 -39.197071 # A 
239 1 1 0.000000 31.262970 0.132532 -39.346443 # A 
240 1 1 0.000000 31.923855 0.324865 -40.061111 # A 
241 1 1 0.000000 31.544146 1.030756 -39.961750 # A 
242 1 1 0.000000 31.017157 1.751473 -39.735115 # A 
243 1 1 0.000000 31.104099 1.637352 -38.630657 # A 
244 1 1 0.000000 30.347992 1.749658 -37.983746 # A 
245 1 1 0.000000 29.510176 1.620303 -38.334591 # A 
246 1 1 0.000000 30.088676 1.679264 -39.114620 # A 
247 1 1 0.000000 29.226086 1.669217 -39.373928 # A 
248 1 1 0.000000 28.656906 1.946007 -39.991085 # A 
249 1 1 0.000000 28.349951 1.089885 -39.436024 # A 
250 1 1 0.000000 28.979231 0.884021 -40.239231 # A 
251 1 1 0.000000 28.119474 0.275255 -40.201260 # A 
252 1 1 0.000000 28.783512 -0.069427 -40.784145 # A 
253 1 1 0.000000 28.463057 -0.508608 -41.539928 # A 
254 1 1 0.000000 29.014837 -1.329178 -41.648232 # A 
255 1 1 0.000000 28.670748 -1.272339 -40.731403 # A 
256 1 1 0.000000 27.864801 -1.501360 -41.320530 # A 
257 1 1 0.000000 28.033905 -2.332875 -40.667072 # A 
258 1 1 0.000000 27.994009 -3.295919 -40.361111 # A 
259 1 1 0.000000 27.455809 -2.795561 -39.795010 # A 
260 1 1 0.000000 27.085707 -3.598167 -39.330769 # A 
261 1 1 0.000000 26.165390 -3.324833 -39.053722 # A 
262 1 1 0.000000 26.011221 -2.362655 -38.571774 # A 
263 1 1 0.000000 25.810808 -2.992932 -38.032207 # A 
264 1 1 0.000000 26.562267 -2.503175 -37.571850 # A 
265 1 1 0.000000 25.403147 -2.189390 -37.314716 # A 
266 1 1 0.000000 25.501289 -2.330174 -36.323025 # A 
267 1 1 0.000000 25.875343 -3.068818 -36.934456 # A 
268 1 1 0.000000 26.237543 -4.046644 -36.427647 # A 
269 1 1 0.000000 25.816301 -3.547062 -35.684269 # A 
270 1 1 0.000000 26.240690 -3.032221 -34.880840 # A 
271 1 1 0.000000 26.223974 -3.833946 -34.361473 # A 
272 1 1 0.000000 26.501791 -3.305531 -33.806526 # A 
273 1 1 0.000000 27.244823 -3.476433 -34.568153 # A 
274 1 1 0.000000 27.297852 -4.230033 -34.038906 # A 
275 1 1 0.000000 27.300991 -4.195697 -32.955692 # A 
276 1 1 0.000000 26.479349 -4.210715 -33.278774 # A 
277 1 1 0.000000 27.024534 -5.119642 -33.493050 # A 
278 1 1 0.000000 26.757483 -5.082495 -32.543205 # A 
279 1 1 0.000000 25.916920 -5.402105 -32.318588 # A 
280 1 1 0.000000 26.351189 -6.338531 -32.277000 # A 
281 1 1 0.000000 26.561729 -6.006004 -33.122036 # A 
282 1 1 0.000000 25.645416 -6.058727 -33.164719 # A 
283 1 1 0.000000 26.040607 -6.739972 -33.769409 # A 
284 1 1 0.000000 26.205439 -5.921645 -34.154488 # A 
285 1 1 0.000000 25.304485 -6.138077 -34.486679 # A 
286 1 1 0.000000 25.027845 -6.588925 -35.249577 # A 
287 1 1 0.000000 25.050070 -5.693630 -35.703365 # A 
288 1 1 0.000000 24.812038 -4.952153 -36.322838 # A 
289 1 1 0.000000 25.526030 -5.470325 -36.829479 # A 
290 1 1 0.000000 25.536844 -4.655711 -37.188267 # A 
291 1 1 0.000000 24.666269 -4.622116 -37.508804 # A 
292 1 1 0.000000 24.263924 -3.846938 -38.248859 # A 
293 1 1 0.000000 23.242615 -3.964451 -38.083508 # A 
294 1 1 0.000000 23.436489 -3.257256 -38.757240 # A 
295 1 1 0.000000 22.636705 -2.991834 -38.212517 # A 
296 1 1 0.000000 22.997498 -2.296265 -38.730671 # A 
297 1 1 0.000000 23.708273 -1.702827 -38.714962 # A 
298 1 1 0.000000 23.313211 -1.558633 -39.470463 # A 
299 1 1 0.000000 23.921309 -2.473213 -39.514099 # A 
300 1 1 0.000000 24.915754 -2.843337 -39.079441 # A 
301 1 1 0.000000 25.240276 -3.841445 -39.398804 # A 
302 1 1 0.000000 24.747677 -4.507292 -40.032162 # A 
303 1 1 0.000000 24.594349 -5.535380 -40.414307 # A 
304 1 1 0.000000 23.911684 -5.963172 -40.131275 # A 
305 1 1 0.000000 23.221958 -6.371994 -39.607910 # A 
306 1 1 0.000000 23.654024 -7.142619 -39.188293 # A 
307 1 1 0.000000 23.057285 -7.102077 -38.425125 # A 
308 1 1 0.000000 22.552418 -7.186387 -39.197628 # A 
309 1 1 0.000000 21.981009 -7.838633 -38.402554 # A 
310 1 1 0.000000 21.321421 -8.278378 -37.579777 # A 
311 1 1 0.000000 21.014544 -8.885753 -38.326714 # A 
312 1 1 0.000000 20.171967 -8.522805 -38.061558 # A 
313 1 1 0.000000 19.572966 -8.399573 -38.706841 # A 
314 1 1 0.000000 19.217560 -7.615399 -38.990543 # A 
315 1 1 0.000000 19.480795 -6.780479 -38.614296 # A 
316 1 1 0.000000 18.624895 -6.233478 -38.884369 # A 
317 1 1 0.000000 18.165682 -5.387920 -38.518826 # A 
318 1 1 0.000000 17.584375 -4.741177 -38.352631 # A 
319 1 1 0.000000 17.665956 -4.003274 -37.707783 # A 
320 1 1 0.000000 17.777557 -4.056962 -36.588749 # A 
321 1 1 0.000000 18.069263 -4.661620 -35.807373 # A 
322 1 1 0.000000 18.820587 -5.090420 -35.893970 # A 
323 1 1 0.000000 18.545965 -4.860022 -36.787067 # A 
324 1 1 0.000000 18.979334 -4.155063 -36.488739 # A 
325 1 1 0.000000 18.384060 -3.598911 -35.794479 # A 
326 1 1 0.000000 18.771479 -3.067792 -34.970379 # A 
327 1 1 0.000000 18.902512 -2.901169 -33.939716 # A 
328 1 1 0.000000 19.422749 -2.149547 -33.525867 # A 
329 1 1 0.000000 20.272854 -2.007532 -34.168350 # A 
330 1 1 0.000000 19.666700 -2.429851 -34.596439 # A 
331 1 1 0.000000 19.849138 -2.593531 -35.561478 # A 
332 1 1 0.000000 20.193295 -2.229854 -36.622524 # A 
333 1 1 0.000000 19.475365 -2.116673 -37.295673 # A 
334 1 1 0.000000 19.277020 -1.661786 -38.171650 # A 
335 1 1 0.000000 18.680099 -2.493148 -37.931206 # A 
336 1 1 0.000000 18.390333 -3.100807 -38.561905 # A 
337 1 1 0.000000 17.676794 -2.544169 -38.376339 # A 
338 1 1 0.000000 17.889919 -2.548379 -39.322136 # A 
339 1 1 0.000000 18.133038 -1.665048 -39.601017 # A 
340 1 1 0.000000 18.287905 -1.623874 -38.563919 # A 
341 1 1 0.000000 18.886585 -2.216509 -39.026691 # A 
342 1 1 0.000000 19.916651 -2.203259 -39.118534 # A 
343 1 1 0.000000 19.516014 -2.910597 -38.538090 # A 
344 1 1 0.000000 19.284697 -3.199129 -39.411682 # A 
345 1 1 0.000000 18.411848 -3.427773 -39.607502 # A 
346 1 1 0.000000 18.154749 -4.216209 -39.149036 # A 
347 1 1 0.000000 18.971992 -4.006692 -38.668686 # A 
348 1 1 0.000000 19.008696 -4.947105 -38.974148 # A 
349 1 1 0.000000 19.608854 -5.605160 -38.865292 # A 
350 1 1 0.000000 20.256294 -5.961060 -39.576466 # A 
351 1 1 0.000000 21.098642 -6.526811 -40.003407 # A 
352 1 1 0.000000 21.912235 -7.307581 -40.194382 # A 
353 1 1 0.000000 22.884380 -7.183671 -40.326805 # A 
354 1 1 0.000000 23.867918 -7.038811 -40.268608 # A 
355 1 1 0.000000 24.632648 -6.481963 -39.570568 # A 
356 1 1 0.000000 24.054855 -6.104415 -39.022701 # A 
357 1 1 0.000000 23.849199 -5.191666 -39.346638 # A 
358 1 1 0.000000 24.921219 -5.397548 -39.321747 # A 
359 1 1 0.000000 25.348669 -4.672627 -38.770901 # A 
360 1 1 0.000000 25.724997 -5.354333 -38.103466 # A 
361 1 1 0.000000 25.733938 -6.155449 -38.829185 # A 
362 1 1 0.000000 26.864599 -6.654950 -38.796013 # A 
363 1 1 0.000000 27.495823 -6.736746 -39.702667 # A 
364 1 1 0.000000 28.018898 -6.832608 -38.988159 # A 
365 1 1 0.000000 28.076468 -5.885804 -39.413445 # A 
366 1 1 0.000000 28.607450 -6.468214 -39.903896 # A 
367 1 1 0.000000 27.924601 -6.087342 -40.487343 # A 
368 1 1 0.000000 28.640793 -5.780878 -40.711391 # A 
369 1 1 0.000000 28.448370 -5.042872 -41.329597 # A 
370 1 1 0.000000 28.267534 -5.709041 -41.778862 # A 
371 1 1 0.000000 28.038818 -4.778872 -42.342239 # A 
372 1 1 0.000000 27.598854 -4.172115 -42.606285 # A 
373 1 1 0.000000 26.944080 -3.322673 -42.913609 # A 
374 1 1 0.000000 27.715687 -3.329322 -43.376175 # A 
375 1 1 0.000000 26.995342 -2.947023 -44.023655 # A 
376 1 1 0.000000 27.220997 -2.346154 -43.339943 # A 
377 1 1 0.000000 27.946850 -2.425293 -44.102325 # A 
378 1 1 0.000000 28.070648 -1.653951 -43.623898 # A 
379 1 1 0.000000 27.450401 -1.475320 -42.701458 # A 
380 1 1 0.000000 26.696646 -0.846509 -42.485760 # A 
381 1 1 0.000000 26.466320 -0.260419 -41.619587 # A 
382 1 1 0.000000 27.355114 -0.527272 -41.678505 # A 
383 1 1 0.000000 26.986845 -0.941342 -40.854355 # A 
384 1 1 0.000000 27.762589 -0.615391 -40.641678 # A 
385 1 1 0.000000 27.179127 -0.365776 -39.919548 # A 
386 1 1 0.000000 27.101595 0.205166 -40.792950 # A 
387 1 1 0.000000 26.292488 -0.235298 -40.541649 # A 
388 1 1 0.000000 26.410030 0.475584 -39.885517 # A 
389 1 1 0.000000 26.224770 0.937311 -40.763332 # A 
390 1 1 0.000000 25.342730 1.633020 -41.041546 # A 
391 1 1 0.000000 25.163010 2.376445 -41.761543 # A 
392 1 1 0.000000 24.393398 2.170775 -41.339535 # A 
393 1 1 0.000000 23.978670 2.538255 -42.262543 # A 
394 1 1 0.000000 23.254761 2.493924 -43.043591 # A 
395 1 1 0.000000 23.079002 3.245308 -42.437878 # A 
396 1 1 0.000000 23.425447 3.814712 -41.666775 # A 
397 1 1 0.000000 23.514395 2.983160 -41.405613 # A 
398 1 1 0.000000 22.697556 2.878599 -41.465286 # A 
399 1 1 0.000000 22.329536 3.789846 -41.848621 # A 
400 1 1 0.000000 22.634821 3.811233 -40.901245 # A 
401 1 1 0.000000 21.745005 3.999865 -40.571930 # A 
402 1 1 0.000000 21.680479 3.221526 -41.151127 # A 
403 1 1 0.000000 21.783815 2.862474 -42.073048 # A 
404 1 1 0.000000 21.311224 2.184728 -42.610836 # A 
405 1 1 0.000000 22.105213 2.401682 -43.108578 # A 
406 1 1 0.000000 22.499125 1.669822 -43.804970 # A 
407 1 1 0.000000 21.762581 2.087735 -44.274502 # A 
408 1 1 0.000000 22.587969 2.775853 -43.951290 # A 
409 1 1 0.000000 22.287027 3.280592 -44.744740 # A 
410 1 1 0.000000 21.893400 3.603360 -43.817802 # A 
411 1 1 0.000000 21.310444 3.087142 -44.306847 # A 
412 1 1 0.000000 20.925144 3.879585 -44.378628 # A 
413 1 1 0.000000 21.726240 4.260917 -44.711388 # A 
414 1 1 0.000000 21.408327 3.519054 -45.332264 # A 
415 1 1 0.000000 22.197790 3.114010 -45.787430 # A 
416 1 1 0.000000 22.416357 2.474366 -46.426239 # A 
417 1 1 0.000000 21.676849 2.222186 -46.809891 # A 
418 1 1 0.000000 21.117090 1.476156 -46.158005 # A 
419 1 1 0.000000 21.501617 2.198715 -45.713406 # A 
420 1 1 0.000000 21.908110 1.311216 -45.322002 # A 
421 1 1 0.000000 22.414637 2.202682 -45.158539 # A 
422 1 1 0.000000 23.154682 2.504709 -44.842175 # A 
423 1 1 0.000000 23.268047 1.519123 -44.951313 # A 
424 1 1 0.000000 23.752319 1.983998 -45.859291 # A 
425 1 1 0.000000 23.621233 0.976752 -46.264881 # A 
426 1 1 0.000000 23.715719 0.392835 -47.011097 # A 
427 1 1 0.000000 23.659922 1.210558 -47.551060 # A 
428 1 1 0.000000 23.669413 2.033550 -48.061043 # A 
429 1 1 0.000000 23.849396 2.184845 -47.127857 # A 
430 1 1 0.000000 23.110910 1.769812 -46.767338 # A 
431 1 1 0.000000 22.766653 1.539950 -45.885754 # A 
432 1 1 0.000000 22.143272 1.286128 -46.414345 # A 
433 1 1 0.000000 22.290699 1.584126 -47.441368 # A 
434 1 1 0.000000 22.741703 2.357261 -47.584007 # A 
435 1 1 0.000000 22.535263 2.848047 -48.454872 # A 
436 1 1 0.000000 21.982410 3.065384 -49.511852 # A 
437 1 1 0.000000 22.876970 2.702080 -49.431614 # A 
438 1 1 0.000000 23.261118 1.918512 -49.867645 # A 
439 1 1 0.000000 23.771324 1.570380 -50.530602 # A 
440 1 1 0.000000 23.233295 1.967726 -51.144947 # A 
441 1 1 0.000000 23.730343 2.634653 -50.602364 # A 
442 1 1 0.000000 24.319445 3.006026 -51.260044 # A 
443 1 1 0.000000 24.976149 3.400487 -51.896526 # A 
444 1 1 0.000000 25.466669 3.256963 -52.884472 # A 
445 1 1 0.000000 26.211323 3.034541 -53.340412 # A 
446 1 1 0.000000 26.460873 3.748891 -52.906574 # A 
447 1 1 0.000000 26.084200 4.114351 -53.717731 # A 
448 1 1 0.000000 26.982868 3.605868 -53.947315 # A 
449 1 1 0.000000 27.230907 4.362269 -53.391129 # A 
450 1 1 0.000000 27.583088 5.080432 -52.794365 # A 
451 1 1 0.000000 26.865593 5.603763 -52.285530 # A 
452 1 1 0.000000 26.487566 4.845904 -52.704926 # A 
453 1 1 0.000000 25.730291 5.189768 -52.339523 # A 
454 1 1 0.000000 25.600925 4.200180 -52.382656 # A 
455 1 1 0.000000 25.034515 4.480770 -51.804302 # A 
456 1 1 0.000000 24.412365 4.150295 -51.384361 # A 
457 1 1 0.000000 23.599604 3.585641 -51.751694 # A 
458 1 1 0.000000 23.586565 3.743766 -50.769524 # A 
459 1 1 0.000000 23.625414 3.418910 -49.803421 # A 
460 1 1 0.000000 24.210028 3.647734 -49.219528 # A 
461 1 1 0.000000 24.792639 4.413107 -48.721134 # A 
462 1 1 0.000000 24.473486 4.970916 -47.982513 # A 
463 1 1 0.000000 24.493519 6.015294 -47.787251 # A 
464 1 1 0.000000 24.782017 5.725471 -48.655457 # A 
465 1 1 0.000000 24.540508 5.119658 -49.436619 # A 
466 1 1 0.000000 24.788136 4.361463 -49.900826 # A 
467 1 1 0.000000 24.577023 3.548800 -50.337646 # A 
468 1 1 0.000000 24.958889 3.068834 -49.808353 # A 
469 1 1 0.000000 25.417074 3.611864 -49.074741 # A 
470 1 1 0.000000 26.247637 2.973637 -49.146580 # A 
471 1 1 0.000000 25.358236 2.470054 -48.957401 # A 
472 1 1 0.000000 26.087362 2.462204 -48.165237 # A 
473 1 1 0.000000 26.285378 1.860457 -48.897091 # A 
474 1 1 0.000000 25.593592 1.162790 -49.374435 # A 
475 1 1 0.000000 25.207050 0.431590 -49.959385 # A 
476 1 1 0.000000 24.366734 0.716723 -50.271214 # A 
477 1 1 0.000000 24.599148 0.157416 -50.982628 # A 
478 1 1 0.000000 24.056789 0.322658 -51.848465 # A 
479 1 1 0.000000 23.917791 0.379415 -52.876572 # A 
480 1 1 0.000000 24.075094 1.290795 -53.339760 # A 
481 1 1 0.000000 24.582012 2.101214 -53.781410 # A 
482 1 1 0.000000 25.220531 2.846597 -53.846394 # A 
483 1 1 0.000000 25.988361 3.232257 -54.448692 # A 
484 1 1 0.000000 25.046392 3.102429 -54.874168 # A 
485 1 1 0.000000 24.067249 3.365931 -55.252571 # A 
486 1 1 0.000000 23.223860 3.278243 -55.774822 # A 
487 1 1 0.000000 22.479769 3.032703 -55.182987 # A 
488 1 1 0.000000 22.408617 4.000113 -55.452312 # A 
489 1 1 0.000000 23.170767 3.889719 -54.867538 # A 
490 1 1 0.000000 22.389862 3.732119 -54.336765 # A 
491 1 1 0.000000 21.875183 3.541778 -53.517986 # A 
492 1 1 0.000000 21.055325 3.184238 -53.185883 # A 
493 1 1 0.000000 20.674007 3.189655 -52.457882 # A 
494 1 1 0.000000 20.855841 3.753093 -51.992207 # A 
495 1 1 0.000000 21.630266 3.725597 -52.434669 # A 
496 1 1 0.000000 22.435846 4.137909 -52.125980 # A 
497 1 1 0.000000 22.629484 4.018209 -51.253025 # A 
498 1 1 0.000000 21.684811 3.884449 -51.316208 # A 
499 1 1 0.000000 21.886347 3.332907 -50.715149 # A 
500 1 1 0.000000 22.641491 3.519525 -50.300568 # A 
501 1 1 0.000000 22.645752 2.607292 -50.487434 # A 
502 1 1 0.000000 22.916279 2.986311 -51.203915 # A 
503 1 1 0.000000 22.301664 3.118422 -51.813580 # A 
504 1 1 0.000000 21.624630 2.570553 -52.366180 # A 
505 1 1 0.000000 21.241526 2.906438 -51.493382 # A 
506 1 1 0.000000 22.085350 2.240986 -51.300629 # A 
507 1 1 0.000000 21.405090 1.811338 -51.690762 # A 
508 1 1 0.000000 20.625669 2.201615 -52.107040 # A 
509 1 1 0.000000 20.380772 1.287348 -51.886620 # A 
510 1 1 0.000000 19.569654 1.779541 -52.319141 # A 
511 1 1 0.000000 19.658897 2.725801 -52.492069 # A 
512 1 1 0.000000 18.698957 2.573673 -52.364544 # A 
513 1 1 0.000000 17.919237 2.953856 -52.942223 # A 
514 1 1 0.000000 18.156860 3.919333 -52.446598 # A 
515 1 1 0.000000 17.887972 4.614334 -53.012547 # A 
516 1 1 0.000000 17.854019 4.910710 -52.140102 # A 
517 1 1 0.000000 17.879198 5.987987 -52.119114 # A 
518 1 1 0.000000 17.528221 5.662275 -53.020565 # A 
519 1 1 0.000000 16.728483 5.849956 -52.746189 # A 
520 1 1 0.000000 16.928879 5.519308 -51.955578 # A 
521 1 1 0.000000 16.848061 4.607805 -51.987801 # A 
522 1 1 0.000000 16.768555 4.755749 -52.902012 # A 
523 1 1 0.000000 17.143061 3.927940 -52.811146 # A 
524 1 1 0.000000 16.500118 3.652523 -53.233006 # A 
525 1 1 0.000000 17.201897 3.299106 -53.855827 # A 
526 1 1 0.000000 16.722118 2.976049 -54.721241 # A 
527 1 1 0.000000 16.740765 3.888174 -55.188717 # A 
528 1 1 0.000000 17.049759 4.297355 -56.077377 # A 
529 1 1 0.000000 16.792776 4.938612 -55.384022 # A 
530 1 1 0.000000 15.984871 4.630675 -55.934158 # A 
531 1 1 0.000000 16.059393 4.608626 -57.028728 # A 
532 1 1 0.000000 15.626019 4.393038 -57.937294 # A 
533 1 1 0.000000 16.248802 4.994881 -58.526230 # A 
534 1 1 0.000000 16.585903 5.728763 -59.054749 # A 
535 1 1 0.000000 16.609697 4.900134 -59.622475 # A 
536 1 1 0.000000 17.066771 4.493645 -59.050957 # A 
537 1 1 0.000000 17.454470 3.763188 -59.585003 # A 
538 1 1 0.000000 16.464239 3.640452 -59.509918 # A 
539 1 1 0.000000 15.822838 4.084363 -58.977955 # A 
540 1 1 0.000000 14.834245 3.990657 -58.628475 # A 
541 1 1 0.000000 14.464360 4.207168 -57.664207 # A 
542 1 1 0.000000 13.830594 3.654910 -58.239590 # A 
543 1 1 0.000000 13.207211 3.493794 -57.536308 # A 
544 1 1 0.000000 12.545293 4.109878 -57.629345 # A 
545 1 1 0.000000 12.959868 4.270780 -58.491234 # A 
546 1 1 0.000000 13.449669 4.682758 -57.861179 # A 
547 1 1 0.000000 13.488459 4.307703 -56.909660 # A 
548 1 1 0.000000 12.597864 3.943867 -56.545322 # A 
549 1 1 0.000000 12.623023 2.903167 -56.619507 # A 
550 1 1 0.000000 13.128554 3.164744 -55.895821 # A 
551 1 1 0.000000 12.369954 3.792777 -55.537586 # A 
552 1 1 0.000000 13.185022 3.952924 -55.122349 # A 
553 1 1 0.000000 12.721578 4.588196 -54.581940 # A 
554 1 1 0.000000 13.261674 5.028179 -55.233158 # A 
555 1 1 0.000000 13.725530 5.717853 -55.565102 # A 
556 1 1 0.000000 14.243181 6.480089 -55.814922 # A 
557 1 1 0.000000 13.315651 6.597364 -56.282124 # A 
558 1 1 0.000000 12.973805 7.403469 -56.983315 # A 
559 1 1 0.000000 12.183413 6.894846 -57.521442 # A 
560 1 1 0.000000 11.912691 7.752446 -57.126762 # A 
561 1 1 0.000000 11.171054 7.645264 -56.500034 # A 
562 1 1 0.000000 11.248484 6.844215 -56.935673 # A 
563 1 1 0.000000 11.492362 6.786191 -55.923332 # A 