LAMMPS data file. CGCMM style. atom_style full generated by VMD/TopoTools v1.7 on Mon Aug 06 11:57:05 EDT 2018
 20000 atoms
 19999 bonds
 19998 angles
 0 dihedrals
 0 impropers
 1 atom types
 1 bond types
 1 angle types
 0 dihedral types
 0 improper types
 23.079944 82.466236  xlo xhi
 -38.219891 21.166401  ylo yhi
 -101.355109 -41.968817  zlo zhi

# Pair Coeffs
#
# 1  A

# Bond Coeffs
#
# 1  polymer

# Angle Coeffs
#
# 1  A-A-A

 Masses

 1 1.000000 # A

 Atoms # full

1 1 1 0.000000 14.045087 -3.620206 -20.435843 # A 
2 1 1 0.000000 14.579424 -3.367508 -19.703375 # A 
3 1 1 0.000000 15.288648 -3.605075 -20.227503 # A 
4 1 1 0.000000 14.878489 -4.277179 -20.816139 # A 
5 1 1 0.000000 14.678354 -4.453506 -19.881277 # A 
6 1 1 0.000000 14.890198 -5.083276 -19.333050 # A 
7 1 1 0.000000 15.258379 -4.991125 -18.490946 # A 
8 1 1 0.000000 15.928027 -5.388013 -19.084511 # A 
9 1 1 0.000000 15.779318 -4.588020 -19.731981 # A 
10 1 1 0.000000 16.091928 -4.373926 -18.748827 # A 
11 1 1 0.000000 15.213045 -3.978100 -19.022146 # A 
12 1 1 0.000000 14.977332 -3.011024 -18.724184 # A 
13 1 1 0.000000 14.379133 -2.076616 -18.559494 # A 
14 1 1 0.000000 14.286026 -1.214103 -18.952251 # A 
15 1 1 0.000000 14.476883 -1.137952 -18.012583 # A 
16 1 1 0.000000 14.774769 -0.991670 -17.010601 # A 
17 1 1 0.000000 14.288139 -0.167049 -17.481752 # A 
18 1 1 0.000000 13.858233 0.055941 -16.592112 # A 
19 1 1 0.000000 14.375444 0.779324 -16.090803 # A 
20 1 1 0.000000 14.916503 0.359501 -16.756630 # A 
21 1 1 0.000000 14.141703 0.876342 -17.331711 # A 
22 1 1 0.000000 14.245347 0.934959 -18.455492 # A 
23 1 1 0.000000 13.609235 0.309223 -18.213835 # A 
24 1 1 0.000000 13.255975 1.184287 -17.944210 # A 
25 1 1 0.000000 13.043388 0.385217 -17.292166 # A 
26 1 1 0.000000 12.528591 0.397236 -18.238283 # A 
27 1 1 0.000000 12.656543 -0.519737 -18.483807 # A 
28 1 1 0.000000 13.543465 -0.499187 -18.972515 # A 
29 1 1 0.000000 14.500625 -0.163632 -18.599869 # A 
30 1 1 0.000000 14.095062 0.349766 -19.370680 # A 
31 1 1 0.000000 13.657824 1.181551 -19.573925 # A 
32 1 1 0.000000 14.650531 1.274842 -19.679144 # A 
33 1 1 0.000000 14.162411 1.952443 -20.278500 # A 
34 1 1 0.000000 15.079105 2.326205 -20.955641 # A 
35 1 1 0.000000 16.054672 2.753250 -21.230789 # A 
36 1 1 0.000000 17.027296 2.982795 -21.270546 # A 
37 1 1 0.000000 17.194117 2.569787 -20.250408 # A 
38 1 1 0.000000 17.262590 1.820858 -19.526533 # A 
39 1 1 0.000000 16.909927 2.573679 -19.162174 # A 
40 1 1 0.000000 16.860956 1.911310 -18.468180 # A 
41 1 1 0.000000 17.849199 1.603313 -18.537830 # A 
42 1 1 0.000000 17.855961 2.461605 -18.553423 # A 
43 1 1 0.000000 18.618771 2.130891 -17.852467 # A 
44 1 1 0.000000 19.385521 1.526463 -17.338881 # A 
45 1 1 0.000000 20.307135 1.704712 -16.888552 # A 
46 1 1 0.000000 20.141541 0.751541 -16.856447 # A 
47 1 1 0.000000 20.776958 1.033386 -17.623680 # A 
48 1 1 0.000000 20.076029 1.560644 -18.201746 # A 
49 1 1 0.000000 19.825298 1.893929 -19.157879 # A 
50 1 1 0.000000 19.683655 2.124407 -20.145788 # A 
51 1 1 0.000000 19.544809 2.224899 -21.201021 # A 
52 1 1 0.000000 18.921465 2.554928 -21.898285 # A 
53 1 1 0.000000 19.188528 2.704432 -22.814135 # A 
54 1 1 0.000000 18.788340 2.640659 -23.593000 # A 
55 1 1 0.000000 19.031052 2.141011 -24.256863 # A 
56 1 1 0.000000 18.711613 1.485652 -23.667372 # A 
57 1 1 0.000000 19.457392 1.703654 -23.278589 # A 
58 1 1 0.000000 19.686403 1.848806 -22.301275 # A 
59 1 1 0.000000 19.963650 2.838399 -22.032166 # A 
60 1 1 0.000000 19.630943 3.626826 -22.451494 # A 
61 1 1 0.000000 18.676298 3.581353 -22.088398 # A 
62 1 1 0.000000 18.023024 3.211760 -21.727949 # A 
63 1 1 0.000000 17.532164 3.447845 -22.547930 # A 
64 1 1 0.000000 18.130356 2.758569 -22.671530 # A 
65 1 1 0.000000 18.501740 1.854518 -22.632565 # A 
66 1 1 0.000000 18.920168 1.060402 -22.581316 # A 
67 1 1 0.000000 19.073404 0.477967 -23.267431 # A 
68 1 1 0.000000 18.224337 0.120657 -23.204967 # A 
69 1 1 0.000000 18.649380 -0.706412 -23.627504 # A 
70 1 1 0.000000 18.969290 -0.527315 -22.706749 # A 
71 1 1 0.000000 19.248327 -0.734887 -21.831285 # A 
72 1 1 0.000000 18.261528 -0.828846 -21.799583 # A 
73 1 1 0.000000 17.886196 -0.885868 -22.795935 # A 
74 1 1 0.000000 17.180613 -0.256378 -22.825832 # A 
75 1 1 0.000000 16.457985 -0.165790 -23.384504 # A 
76 1 1 0.000000 15.636188 0.059015 -22.947918 # A 
77 1 1 0.000000 15.383986 -0.295684 -23.754181 # A 
78 1 1 0.000000 15.844488 -1.171044 -23.413794 # A 
79 1 1 0.000000 16.454184 -1.877774 -23.840181 # A 
80 1 1 0.000000 16.906937 -1.213545 -23.234936 # A 
81 1 1 0.000000 16.733572 -0.912639 -24.179197 # A 
82 1 1 0.000000 17.604483 -0.604835 -23.859529 # A 
83 1 1 0.000000 17.551485 -1.621604 -24.085207 # A 
84 1 1 0.000000 17.688541 -1.657519 -25.055899 # A 
85 1 1 0.000000 16.924236 -2.168285 -24.831133 # A 
86 1 1 0.000000 17.525196 -2.625303 -25.482477 # A 
87 1 1 0.000000 18.001896 -2.924716 -26.279964 # A 
88 1 1 0.000000 18.017435 -1.872570 -26.118025 # A 
89 1 1 0.000000 18.849495 -2.308820 -26.621626 # A 
90 1 1 0.000000 18.672520 -2.502435 -25.527033 # A 
91 1 1 0.000000 19.135260 -3.183676 -26.037951 # A 
92 1 1 0.000000 19.698786 -4.048377 -26.015795 # A 
93 1 1 0.000000 19.896765 -4.039799 -24.983400 # A 
94 1 1 0.000000 20.089741 -4.896521 -24.341139 # A 
95 1 1 0.000000 20.079046 -5.209910 -23.376793 # A 
96 1 1 0.000000 20.236469 -5.945465 -22.747253 # A 
97 1 1 0.000000 20.098251 -6.309680 -23.614527 # A 
98 1 1 0.000000 20.197981 -6.794610 -24.440454 # A 
99 1 1 0.000000 19.483709 -7.167263 -24.854237 # A 
100 1 1 0.000000 20.327478 -7.309977 -25.422358 # A 
101 1 1 0.000000 21.075747 -7.280251 -25.891474 # A 
102 1 1 0.000000 21.679207 -7.984971 -25.555571 # A 
103 1 1 0.000000 22.416857 -7.498021 -25.804518 # A 
104 1 1 0.000000 23.303352 -7.526213 -25.180801 # A 
105 1 1 0.000000 22.483849 -7.308125 -24.758690 # A 
106 1 1 0.000000 21.595022 -7.449632 -24.507219 # A 
107 1 1 0.000000 21.250381 -8.351348 -24.651474 # A 
108 1 1 0.000000 20.480757 -8.514714 -23.682514 # A 
109 1 1 0.000000 20.833548 -8.787413 -23.004385 # A 
110 1 1 0.000000 21.329098 -8.071605 -22.551373 # A 
111 1 1 0.000000 22.284721 -8.082090 -23.002028 # A 
112 1 1 0.000000 22.954893 -7.361536 -22.758259 # A 
113 1 1 0.000000 23.063017 -6.523799 -23.278208 # A 
114 1 1 0.000000 23.031767 -6.388586 -24.304808 # A 
115 1 1 0.000000 23.041868 -5.508400 -24.979876 # A 
116 1 1 0.000000 22.808825 -4.595666 -25.557995 # A 
117 1 1 0.000000 23.055582 -4.330750 -26.542183 # A 
118 1 1 0.000000 22.713831 -5.330087 -26.456732 # A 
119 1 1 0.000000 23.528254 -5.912210 -26.700222 # A 
120 1 1 0.000000 23.512861 -5.078334 -27.160475 # A 
121 1 1 0.000000 23.820599 -4.978601 -26.184212 # A 
122 1 1 0.000000 24.136950 -4.201631 -26.948261 # A 
123 1 1 0.000000 23.257866 -3.569135 -27.285704 # A 
124 1 1 0.000000 22.897581 -2.853538 -27.927986 # A 
125 1 1 0.000000 22.231014 -3.143625 -27.224476 # A 
126 1 1 0.000000 21.797251 -2.525208 -27.696617 # A 
127 1 1 0.000000 21.056904 -1.974417 -27.889750 # A 
128 1 1 0.000000 20.726316 -2.700118 -27.082100 # A 
129 1 1 0.000000 19.976398 -3.210979 -26.740627 # A 
130 1 1 0.000000 19.952986 -3.696253 -27.613970 # A 
131 1 1 0.000000 19.665150 -2.764292 -27.758448 # A 
132 1 1 0.000000 20.590824 -3.073778 -28.220270 # A 
133 1 1 0.000000 21.339443 -2.909118 -28.704575 # A 
134 1 1 0.000000 21.554976 -3.573987 -27.865973 # A 
135 1 1 0.000000 21.524977 -3.947439 -28.890612 # A 
136 1 1 0.000000 20.985998 -4.757065 -28.696337 # A 
137 1 1 0.000000 20.461708 -5.653084 -28.476522 # A 
138 1 1 0.000000 19.613911 -6.159715 -28.119532 # A 
139 1 1 0.000000 19.879627 -5.638671 -27.433134 # A 
140 1 1 0.000000 20.273912 -4.821759 -27.790936 # A 
141 1 1 0.000000 19.971815 -4.558469 -26.959654 # A 
142 1 1 0.000000 19.207359 -4.474445 -27.769800 # A 
143 1 1 0.000000 19.105246 -3.889558 -26.955654 # A 
144 1 1 0.000000 18.941149 -4.941434 -26.755611 # A 
145 1 1 0.000000 18.754873 -5.587900 -27.540472 # A 
146 1 1 0.000000 18.530161 -6.428784 -28.065138 # A 
147 1 1 0.000000 17.617970 -6.981068 -28.148031 # A 
148 1 1 0.000000 16.612761 -6.650381 -28.535049 # A 
149 1 1 0.000000 15.728696 -7.186888 -28.089136 # A 
150 1 1 0.000000 15.716986 -6.960981 -29.089333 # A 
151 1 1 0.000000 16.119820 -7.480093 -29.853914 # A 
152 1 1 0.000000 16.536747 -6.537622 -29.648554 # A 
153 1 1 0.000000 15.538458 -6.334163 -29.887093 # A 
154 1 1 0.000000 16.003012 -5.895705 -28.975060 # A 
155 1 1 0.000000 15.384228 -6.140719 -28.427109 # A 
156 1 1 0.000000 14.553750 -6.430816 -28.520308 # A 
157 1 1 0.000000 14.035241 -6.237371 -27.576746 # A 
158 1 1 0.000000 15.059690 -6.548331 -27.422373 # A 
159 1 1 0.000000 14.508883 -7.232468 -27.703796 # A 
160 1 1 0.000000 14.772041 -7.524977 -28.437178 # A 
161 1 1 0.000000 14.393214 -7.818966 -29.109592 # A 
162 1 1 0.000000 14.012229 -7.125991 -29.628399 # A 
163 1 1 0.000000 14.172663 -8.063065 -30.141701 # A 
164 1 1 0.000000 15.083268 -7.300396 -29.871872 # A 
165 1 1 0.000000 15.129892 -7.899076 -30.724062 # A 
166 1 1 0.000000 14.472610 -7.252178 -30.797935 # A 
167 1 1 0.000000 13.912179 -6.735357 -30.665819 # A 
168 1 1 0.000000 14.354400 -6.122262 -31.006702 # A 
169 1 1 0.000000 13.351523 -5.882561 -31.087669 # A 
170 1 1 0.000000 13.888724 -5.398225 -31.687229 # A 
171 1 1 0.000000 13.834746 -5.604322 -32.652798 # A 
172 1 1 0.000000 13.723620 -4.948094 -33.587578 # A 
173 1 1 0.000000 13.954315 -5.445628 -34.466862 # A 
174 1 1 0.000000 13.922477 -4.660940 -35.083553 # A 
175 1 1 0.000000 14.868425 -4.464817 -34.902676 # A 
176 1 1 0.000000 15.602497 -4.794795 -34.373329 # A 
177 1 1 0.000000 15.056607 -4.200043 -33.852737 # A 
178 1 1 0.000000 15.847048 -3.655355 -34.173244 # A 
179 1 1 0.000000 15.005117 -3.145255 -33.817444 # A 
180 1 1 0.000000 15.427631 -2.274469 -33.400547 # A 
181 1 1 0.000000 16.184378 -2.856453 -33.407486 # A 
182 1 1 0.000000 15.651317 -3.582842 -32.992661 # A 
183 1 1 0.000000 16.432468 -3.728486 -32.568493 # A 
184 1 1 0.000000 17.225424 -4.281117 -32.917530 # A 
185 1 1 0.000000 17.877232 -3.695467 -32.467327 # A 
186 1 1 0.000000 18.456974 -3.022546 -31.957350 # A 
187 1 1 0.000000 19.390392 -2.702439 -32.187698 # A 
188 1 1 0.000000 18.959930 -2.576779 -32.965908 # A 
189 1 1 0.000000 18.954390 -3.507704 -32.869438 # A 
190 1 1 0.000000 19.834608 -3.317828 -33.064922 # A 
191 1 1 0.000000 20.583078 -3.074394 -32.521564 # A 
192 1 1 0.000000 20.839161 -3.734538 -33.235497 # A 
193 1 1 0.000000 20.728689 -3.976715 -34.197598 # A 
194 1 1 0.000000 19.981064 -4.375304 -33.564827 # A 
195 1 1 0.000000 19.707382 -4.935942 -34.446716 # A 
196 1 1 0.000000 19.144928 -5.289052 -35.189854 # A 
197 1 1 0.000000 19.118229 -5.637226 -36.098663 # A 
198 1 1 0.000000 18.459978 -4.923053 -36.020668 # A 
199 1 1 0.000000 19.012253 -4.833867 -36.833298 # A 
200 1 1 0.000000 19.962811 -4.655785 -36.804081 # A 
201 1 1 0.000000 20.886951 -4.605317 -36.503075 # A 
202 1 1 0.000000 21.724487 -3.779136 -36.211018 # A 
203 1 1 0.000000 22.837713 -3.700228 -35.783047 # A 
204 1 1 0.000000 23.696360 -3.999781 -35.532413 # A 
205 1 1 0.000000 24.920288 -4.183578 -35.725845 # A 
206 1 1 0.000000 25.014105 -3.550535 -36.629848 # A 
207 1 1 0.000000 25.319727 -2.803806 -36.203915 # A 
208 1 1 0.000000 25.751949 -3.472540 -35.751740 # A 
209 1 1 0.000000 26.427700 -4.127241 -35.524517 # A 
210 1 1 0.000000 25.934727 -3.910043 -34.798557 # A 
211 1 1 0.000000 26.044519 -2.840384 -34.685638 # A 
212 1 1 0.000000 25.189335 -2.489085 -35.138237 # A 
213 1 1 0.000000 25.855143 -1.713683 -34.786854 # A 
214 1 1 0.000000 26.413900 -1.277628 -35.671257 # A 
215 1 1 0.000000 25.841230 -1.973455 -35.802525 # A 
216 1 1 0.000000 26.021688 -1.753526 -36.697800 # A 
217 1 1 0.000000 25.735340 -1.227505 -37.516109 # A 
218 1 1 0.000000 24.998922 -1.817720 -37.156281 # A 
219 1 1 0.000000 24.768663 -0.890936 -37.011848 # A 
220 1 1 0.000000 25.022165 -1.391386 -36.232918 # A 
221 1 1 0.000000 24.912035 -0.268059 -36.021866 # A 
222 1 1 0.000000 25.491144 -0.764823 -35.453335 # A 
223 1 1 0.000000 26.194586 -0.229241 -35.764374 # A 
224 1 1 0.000000 25.780891 -0.639403 -36.555878 # A 
225 1 1 0.000000 26.660458 -0.849733 -36.625938 # A 
226 1 1 0.000000 27.745480 -0.762317 -36.527946 # A 
227 1 1 0.000000 27.167728 -0.470522 -35.710018 # A 
228 1 1 0.000000 27.858948 -1.100666 -35.399754 # A 
229 1 1 0.000000 28.450264 -1.472398 -36.150799 # A 
230 1 1 0.000000 28.645199 -0.480345 -35.892014 # A 
231 1 1 0.000000 29.594246 -0.336058 -36.144279 # A 
232 1 1 0.000000 29.528326 -1.316855 -36.095097 # A 
233 1 1 0.000000 29.925318 -1.014175 -36.919701 # A 
234 1 1 0.000000 28.977983 -0.805581 -36.898678 # A 
235 1 1 0.000000 29.423357 0.022427 -37.176018 # A 
236 1 1 0.000000 29.640297 0.956170 -37.773548 # A 
237 1 1 0.000000 30.126169 0.879976 -36.953449 # A 
238 1 1 0.000000 30.500484 0.119373 -37.621876 # A 
239 1 1 0.000000 30.680260 0.396716 -38.552460 # A 
240 1 1 0.000000 31.342751 0.843146 -37.839291 # A 
241 1 1 0.000000 30.631168 1.278032 -37.944408 # A 
242 1 1 0.000000 30.121836 1.977314 -38.027542 # A 
243 1 1 0.000000 30.489792 1.894283 -37.023293 # A 
244 1 1 0.000000 29.905153 2.595300 -37.108200 # A 
245 1 1 0.000000 28.957411 2.192579 -37.069038 # A 
246 1 1 0.000000 29.142803 2.348848 -38.040722 # A 
247 1 1 0.000000 28.142826 2.090615 -37.817673 # A 
248 1 1 0.000000 27.538803 2.349474 -38.554176 # A 
249 1 1 0.000000 27.307707 1.460065 -38.201149 # A 
250 1 1 0.000000 27.488657 0.777365 -38.882431 # A 
251 1 1 0.000000 28.110685 0.539055 -39.629288 # A 
252 1 1 0.000000 27.959320 -0.337912 -39.845257 # A 
253 1 1 0.000000 27.428026 -0.208018 -40.473324 # A 
254 1 1 0.000000 27.381144 -1.280721 -40.329895 # A 
255 1 1 0.000000 27.376801 -1.036345 -39.227570 # A 
256 1 1 0.000000 27.623169 -1.874484 -39.419193 # A 
257 1 1 0.000000 27.843428 -2.842212 -39.290905 # A 
258 1 1 0.000000 27.094589 -3.442658 -39.591751 # A 
259 1 1 0.000000 26.709019 -2.504402 -39.262726 # A 
260 1 1 0.000000 26.231960 -3.197264 -38.803246 # A 
261 1 1 0.000000 25.551538 -3.206834 -38.178036 # A 
262 1 1 0.000000 25.117645 -2.833277 -37.329803 # A 
263 1 1 0.000000 24.299433 -2.612481 -36.723324 # A 
264 1 1 0.000000 23.624435 -3.164865 -36.322796 # A 
265 1 1 0.000000 24.039486 -3.986526 -36.547085 # A 
266 1 1 0.000000 24.409889 -3.218685 -35.683941 # A 
267 1 1 0.000000 24.805077 -3.524626 -34.847206 # A 
268 1 1 0.000000 25.045980 -4.167017 -34.187439 # A 
269 1 1 0.000000 25.622570 -4.370612 -33.384480 # A 
270 1 1 0.000000 25.875708 -3.537000 -33.793056 # A 
271 1 1 0.000000 25.448029 -3.246726 -33.091736 # A 
272 1 1 0.000000 26.071646 -2.657002 -32.691662 # A 
273 1 1 0.000000 26.611557 -2.832463 -33.519253 # A 
274 1 1 0.000000 26.438017 -3.728448 -32.881840 # A 
275 1 1 0.000000 26.396141 -4.235965 -32.002052 # A 
276 1 1 0.000000 25.478062 -4.017896 -32.301949 # A 
277 1 1 0.000000 25.628763 -4.942939 -32.424725 # A 
278 1 1 0.000000 25.491774 -4.862900 -31.539341 # A 
279 1 1 0.000000 25.248520 -5.569751 -30.786108 # A 
280 1 1 0.000000 25.709652 -6.377834 -31.057022 # A 
281 1 1 0.000000 25.958654 -5.865460 -31.908272 # A 
282 1 1 0.000000 25.041601 -5.870005 -31.863449 # A 
283 1 1 0.000000 25.153072 -5.797314 -32.835766 # A 
284 1 1 0.000000 24.769472 -5.303039 -33.526455 # A 
285 1 1 0.000000 24.653322 -5.533484 -34.539047 # A 
286 1 1 0.000000 23.878183 -6.067147 -34.101353 # A 
287 1 1 0.000000 23.813435 -5.097121 -34.025768 # A 
288 1 1 0.000000 23.645100 -5.227260 -35.024143 # A 
289 1 1 0.000000 24.151106 -4.964694 -35.649971 # A 
290 1 1 0.000000 23.391672 -5.646897 -36.018929 # A 
291 1 1 0.000000 22.863235 -4.725513 -35.527122 # A 
292 1 1 0.000000 23.202154 -4.635265 -36.380512 # A 
293 1 1 0.000000 22.852045 -3.886909 -36.866158 # A 
294 1 1 0.000000 22.512985 -3.003113 -36.668072 # A 
295 1 1 0.000000 21.869020 -2.429396 -37.100307 # A 
296 1 1 0.000000 22.540327 -1.735418 -36.924679 # A 
297 1 1 0.000000 23.088364 -1.020938 -37.489689 # A 
298 1 1 0.000000 24.053450 -0.838500 -37.769260 # A 
299 1 1 0.000000 24.242439 -1.849546 -37.886963 # A 
300 1 1 0.000000 24.676970 -2.599287 -38.400539 # A 
301 1 1 0.000000 24.641319 -3.550314 -38.779953 # A 
302 1 1 0.000000 24.525803 -4.372525 -39.240429 # A 
303 1 1 0.000000 24.398031 -5.406460 -39.237679 # A 
304 1 1 0.000000 24.257740 -5.912004 -38.458366 # A 
305 1 1 0.000000 24.252129 -6.469570 -37.774071 # A 
306 1 1 0.000000 23.934902 -6.246057 -36.990124 # A 
307 1 1 0.000000 23.804375 -7.354624 -37.134453 # A 
308 1 1 0.000000 23.178843 -8.212153 -37.323051 # A 
309 1 1 0.000000 22.666210 -9.122070 -37.490849 # A 
310 1 1 0.000000 21.640251 -9.164564 -37.667522 # A 
311 1 1 0.000000 20.861540 -8.364401 -37.557751 # A 
312 1 1 0.000000 20.074226 -7.616632 -37.673969 # A 
313 1 1 0.000000 19.295624 -6.962575 -37.274662 # A 
314 1 1 0.000000 18.715374 -7.312319 -37.821365 # A 
315 1 1 0.000000 18.325140 -6.452971 -37.300529 # A 
316 1 1 0.000000 18.256861 -5.647177 -36.748680 # A 
317 1 1 0.000000 17.770111 -5.511507 -37.556339 # A 
318 1 1 0.000000 17.137455 -5.587314 -36.712395 # A 
319 1 1 0.000000 17.461199 -4.768181 -36.391014 # A 
320 1 1 0.000000 17.008810 -4.466612 -35.566719 # A 
321 1 1 0.000000 17.618326 -5.149096 -35.214153 # A 
322 1 1 0.000000 17.245659 -4.895444 -34.149948 # A 
323 1 1 0.000000 16.565573 -4.388704 -34.523487 # A 
324 1 1 0.000000 16.173569 -4.435640 -33.458584 # A 
325 1 1 0.000000 16.788113 -3.719712 -33.657730 # A 
326 1 1 0.000000 17.208546 -3.145274 -33.132801 # A 
327 1 1 0.000000 17.821978 -2.588130 -32.805248 # A 
328 1 1 0.000000 18.236771 -1.689582 -32.774734 # A 
329 1 1 0.000000 17.966366 -1.239102 -33.757656 # A 
330 1 1 0.000000 18.968410 -1.485762 -33.601940 # A 
331 1 1 0.000000 18.312483 -2.239179 -33.804375 # A 
332 1 1 0.000000 18.537188 -1.664197 -34.603886 # A 
333 1 1 0.000000 18.989794 -1.285689 -35.528439 # A 
334 1 1 0.000000 18.859171 -2.002995 -36.384022 # A 
335 1 1 0.000000 18.135693 -2.265923 -36.951138 # A 
336 1 1 0.000000 17.753813 -2.645912 -37.799038 # A 
337 1 1 0.000000 17.101753 -2.316722 -37.191635 # A 
338 1 1 0.000000 16.854486 -1.938017 -38.004440 # A 
339 1 1 0.000000 17.586355 -1.887221 -38.623775 # A 
340 1 1 0.000000 17.861525 -1.559633 -37.695724 # A 
341 1 1 0.000000 18.572552 -1.982413 -38.141346 # A 
342 1 1 0.000000 19.092897 -1.720438 -37.418644 # A 
343 1 1 0.000000 19.550335 -2.360793 -38.083530 # A 
344 1 1 0.000000 18.966196 -2.834330 -37.336918 # A 
345 1 1 0.000000 19.470463 -3.426282 -37.960552 # A 
346 1 1 0.000000 18.800655 -3.952389 -37.482666 # A 
347 1 1 0.000000 19.397612 -4.550668 -37.891830 # A 
348 1 1 0.000000 18.817816 -5.290277 -37.815098 # A 
349 1 1 0.000000 19.274548 -5.887679 -37.149895 # A 
350 1 1 0.000000 19.895075 -5.525793 -37.597549 # A 
351 1 1 0.000000 20.266985 -6.351521 -37.391083 # A 
352 1 1 0.000000 20.946484 -5.714922 -37.776173 # A 
353 1 1 0.000000 20.234774 -6.030880 -38.456299 # A 
354 1 1 0.000000 20.729912 -6.545451 -39.287224 # A 
355 1 1 0.000000 21.336981 -5.797417 -38.747185 # A 
356 1 1 0.000000 22.283684 -5.389643 -38.548954 # A 
357 1 1 0.000000 23.100168 -5.589204 -37.865837 # A 
358 1 1 0.000000 23.848021 -5.369153 -37.552723 # A 
359 1 1 0.000000 24.056385 -5.075260 -36.870689 # A 
360 1 1 0.000000 24.870527 -5.627298 -37.363991 # A 
361 1 1 0.000000 24.713013 -5.706114 -36.212822 # A 
362 1 1 0.000000 25.142895 -6.516577 -36.858414 # A 
363 1 1 0.000000 25.872040 -5.784400 -36.910324 # A 
364 1 1 0.000000 26.745909 -5.745304 -37.326714 # A 
365 1 1 0.000000 27.532133 -5.806602 -38.089523 # A 
366 1 1 0.000000 26.602348 -5.873887 -38.395695 # A 
367 1 1 0.000000 26.401226 -5.859300 -39.272171 # A 
368 1 1 0.000000 27.412626 -5.716406 -39.154198 # A 
369 1 1 0.000000 27.052355 -5.327502 -40.031979 # A 
370 1 1 0.000000 26.743387 -5.171764 -40.964729 # A 
371 1 1 0.000000 26.817230 -4.356040 -40.507668 # A 
372 1 1 0.000000 26.457197 -3.791465 -41.127373 # A 
373 1 1 0.000000 25.932098 -3.137254 -41.778328 # A 
374 1 1 0.000000 26.580801 -3.435781 -42.290939 # A 
375 1 1 0.000000 25.994896 -2.768563 -42.786839 # A 
376 1 1 0.000000 25.995424 -2.098455 -42.200851 # A 
377 1 1 0.000000 26.922497 -2.285761 -42.331917 # A 
378 1 1 0.000000 26.865120 -1.481018 -41.799625 # A 
379 1 1 0.000000 26.608742 -0.879669 -40.953922 # A 
380 1 1 0.000000 25.706009 -0.543466 -40.988148 # A 
381 1 1 0.000000 25.554153 -0.288821 -40.091488 # A 
382 1 1 0.000000 26.345314 0.033256 -40.391712 # A 
383 1 1 0.000000 26.472347 -0.823692 -39.915779 # A 
384 1 1 0.000000 26.932556 -0.053040 -39.477169 # A 
385 1 1 0.000000 26.050728 -0.268661 -39.100159 # A 
386 1 1 0.000000 25.909822 0.625885 -39.497051 # A 
387 1 1 0.000000 24.976046 0.124035 -39.222485 # A 
388 1 1 0.000000 25.445377 0.498398 -38.451740 # A 
389 1 1 0.000000 24.974463 1.222583 -39.168156 # A 
390 1 1 0.000000 24.372530 1.864221 -39.759472 # A 
391 1 1 0.000000 24.245234 2.615529 -40.509323 # A 
392 1 1 0.000000 23.465096 2.386830 -40.072460 # A 
393 1 1 0.000000 23.081209 2.740211 -40.979931 # A 
394 1 1 0.000000 22.346113 2.676704 -41.761074 # A 
395 1 1 0.000000 22.173445 3.446765 -41.173065 # A 
396 1 1 0.000000 22.528852 4.007739 -40.391769 # A 
397 1 1 0.000000 22.593988 3.187330 -40.123512 # A 
398 1 1 0.000000 21.799314 3.077057 -40.191055 # A 
399 1 1 0.000000 21.431923 3.984955 -40.567272 # A 
400 1 1 0.000000 21.748640 3.998214 -39.614857 # A 
401 1 1 0.000000 20.856949 4.206159 -39.294113 # A 
402 1 1 0.000000 20.794247 3.416675 -39.864979 # A 
403 1 1 0.000000 20.886145 3.059532 -40.788597 # A 
404 1 1 0.000000 20.424330 2.375658 -41.352753 # A 
405 1 1 0.000000 21.221107 2.617108 -41.814556 # A 
406 1 1 0.000000 21.604408 1.899106 -42.545647 # A 
407 1 1 0.000000 20.823067 2.278810 -42.940483 # A 
408 1 1 0.000000 21.681343 2.983522 -42.715275 # A 
409 1 1 0.000000 21.386683 3.450185 -43.453007 # A 
410 1 1 0.000000 21.012341 3.835461 -42.513721 # A 
411 1 1 0.000000 20.422707 3.293036 -42.977757 # A 
412 1 1 0.000000 20.040188 4.080543 -43.086060 # A 
413 1 1 0.000000 20.832338 4.432125 -43.447292 # A 
414 1 1 0.000000 20.522718 3.636595 -44.030640 # A 
415 1 1 0.000000 21.389248 3.282233 -44.480194 # A 
416 1 1 0.000000 21.477360 2.706175 -45.166759 # A 
417 1 1 0.000000 20.715464 2.407063 -45.476288 # A 
418 1 1 0.000000 20.215872 1.642206 -44.844189 # A 
419 1 1 0.000000 20.582230 2.393801 -44.360332 # A 
420 1 1 0.000000 21.061302 1.536356 -43.998764 # A 
421 1 1 0.000000 21.508392 2.403865 -43.795288 # A 
422 1 1 0.000000 22.275934 2.664369 -43.529469 # A 
423 1 1 0.000000 22.346573 1.684447 -43.662964 # A 
424 1 1 0.000000 22.963011 2.152634 -44.522549 # A 
425 1 1 0.000000 22.750483 1.206999 -44.998455 # A 
426 1 1 0.000000 22.830957 0.554199 -45.684387 # A 
427 1 1 0.000000 22.745455 1.405254 -46.239426 # A 
428 1 1 0.000000 22.799606 2.171499 -46.799606 # A 
429 1 1 0.000000 22.936802 2.388717 -45.819168 # A 
430 1 1 0.000000 22.158571 1.984439 -45.471672 # A 
431 1 1 0.000000 21.889898 1.834130 -44.613960 # A 
432 1 1 0.000000 21.240871 1.512819 -45.083424 # A 
433 1 1 0.000000 21.370764 1.809201 -46.161217 # A 
434 1 1 0.000000 21.850290 2.589790 -46.417675 # A 
435 1 1 0.000000 21.653973 3.119278 -47.182270 # A 
436 1 1 0.000000 21.064749 3.257401 -48.266266 # A 
437 1 1 0.000000 21.970646 2.879350 -48.131668 # A 
438 1 1 0.000000 22.369724 2.095304 -48.589058 # A 
439 1 1 0.000000 22.893532 1.777421 -49.245865 # A 
440 1 1 0.000000 22.355183 2.176786 -49.886387 # A 
441 1 1 0.000000 22.845846 2.829924 -49.319839 # A 
442 1 1 0.000000 23.404549 3.179610 -49.983402 # A 
443 1 1 0.000000 24.066368 3.618563 -50.598473 # A 
444 1 1 0.000000 24.548275 3.427386 -51.548931 # A 
445 1 1 0.000000 25.265980 3.262918 -52.037121 # A 
446 1 1 0.000000 25.587412 3.897729 -51.593410 # A 
447 1 1 0.000000 25.219238 4.345654 -52.364433 # A 
448 1 1 0.000000 26.002583 3.771738 -52.667202 # A 
449 1 1 0.000000 26.317669 4.547328 -52.118370 # A 
450 1 1 0.000000 26.664133 5.223682 -51.511101 # A 
451 1 1 0.000000 25.956776 5.751272 -51.003639 # A 
452 1 1 0.000000 25.567039 5.030099 -51.472374 # A 
453 1 1 0.000000 24.809952 5.379117 -51.037220 # A 
454 1 1 0.000000 24.725962 4.425327 -51.100307 # A 
455 1 1 0.000000 24.150965 4.654687 -50.509060 # A 
456 1 1 0.000000 23.489199 4.364440 -50.094181 # A 
457 1 1 0.000000 22.722746 3.789699 -50.491299 # A 
458 1 1 0.000000 22.705008 3.928643 -49.468639 # A 
459 1 1 0.000000 22.707394 3.654318 -48.538212 # A 
460 1 1 0.000000 23.328966 3.932945 -47.975677 # A 
461 1 1 0.000000 23.860189 4.635599 -47.362019 # A 
462 1 1 0.000000 23.625465 5.198599 -46.617897 # A 
463 1 1 0.000000 23.682989 6.243131 -46.505199 # A 
464 1 1 0.000000 23.889500 5.882962 -47.382343 # A 
465 1 1 0.000000 23.668486 5.228054 -48.169533 # A 
466 1 1 0.000000 23.858404 4.557925 -48.768913 # A 
467 1 1 0.000000 23.682163 3.717845 -49.091187 # A 
468 1 1 0.000000 24.044725 3.307098 -48.468960 # A 
469 1 1 0.000000 24.512085 3.837415 -47.874065 # A 
470 1 1 0.000000 25.197876 3.006371 -47.973900 # A 
471 1 1 0.000000 24.235859 2.796287 -47.551815 # A 
472 1 1 0.000000 25.000940 2.715115 -46.914436 # A 
473 1 1 0.000000 25.012342 1.991397 -47.597511 # A 
474 1 1 0.000000 24.757086 1.207733 -48.224602 # A 
475 1 1 0.000000 24.269091 0.509105 -48.747578 # A 
476 1 1 0.000000 23.461815 0.930396 -49.012051 # A 
477 1 1 0.000000 23.744438 0.332093 -49.696301 # A 
478 1 1 0.000000 23.186451 0.552104 -50.512585 # A 
479 1 1 0.000000 23.033016 0.587625 -51.547974 # A 
480 1 1 0.000000 23.178669 1.481307 -52.050194 # A 
481 1 1 0.000000 23.690525 2.305319 -52.501953 # A 
482 1 1 0.000000 24.373621 3.027397 -52.558792 # A 
483 1 1 0.000000 25.131523 3.505036 -53.202255 # A 
484 1 1 0.000000 24.122786 3.288360 -53.582024 # A 
485 1 1 0.000000 23.186613 3.558309 -53.941856 # A 
486 1 1 0.000000 22.341024 3.480310 -54.478882 # A 
487 1 1 0.000000 21.584890 3.231323 -53.894413 # A 
488 1 1 0.000000 21.514038 4.198685 -54.157021 # A 
489 1 1 0.000000 22.284281 4.086212 -53.575382 # A 
490 1 1 0.000000 21.510513 3.924963 -53.040028 # A 
491 1 1 0.000000 20.983217 3.721733 -52.234081 # A 
492 1 1 0.000000 20.180420 3.391387 -51.867264 # A 
493 1 1 0.000000 19.781792 3.377716 -51.127213 # A 
494 1 1 0.000000 19.974936 3.979978 -50.735584 # A 
495 1 1 0.000000 20.757605 3.966129 -51.158184 # A 
496 1 1 0.000000 21.552406 4.372185 -50.823799 # A 
497 1 1 0.000000 21.732370 4.214643 -49.969093 # A 
498 1 1 0.000000 20.786093 4.067652 -50.044937 # A 
499 1 1 0.000000 21.001593 3.515354 -49.424774 # A 
500 1 1 0.000000 21.745392 3.720393 -49.012474 # A 
501 1 1 0.000000 21.758886 2.802129 -49.215408 # A 
502 1 1 0.000000 22.033606 3.196096 -49.918282 # A 
503 1 1 0.000000 21.391680 3.346547 -50.548389 # A 
504 1 1 0.000000 20.755390 2.824646 -51.033276 # A 
505 1 1 0.000000 20.342857 3.103494 -50.183414 # A 
506 1 1 0.000000 21.221596 2.446305 -50.050442 # A 
507 1 1 0.000000 20.519909 2.000491 -50.407841 # A 
508 1 1 0.000000 19.720667 2.391310 -50.772644 # A 
509 1 1 0.000000 19.472342 1.460388 -50.635468 # A 
510 1 1 0.000000 18.695225 1.946970 -51.030884 # A 
511 1 1 0.000000 18.765848 2.919667 -51.237122 # A 
512 1 1 0.000000 17.809799 2.724857 -50.993721 # A 
513 1 1 0.000000 17.063990 3.228682 -51.583092 # A 
514 1 1 0.000000 17.295975 3.944707 -51.037544 # A 
515 1 1 0.000000 17.348028 4.748528 -51.730175 # A 
516 1 1 0.000000 17.055365 4.990563 -50.975750 # A 
517 1 1 0.000000 17.253658 5.823017 -50.984188 # A 
518 1 1 0.000000 16.737991 5.624058 -51.815968 # A 
519 1 1 0.000000 16.289120 6.266139 -51.408855 # A 
520 1 1 0.000000 16.184114 5.666783 -50.728790 # A 
521 1 1 0.000000 16.104574 4.573555 -50.575432 # A 
522 1 1 0.000000 16.082422 4.776336 -51.507732 # A 
523 1 1 0.000000 16.409056 4.145724 -51.750656 # A 
524 1 1 0.000000 15.936436 3.426193 -51.631832 # A 
525 1 1 0.000000 16.490582 3.498176 -52.628803 # A 
526 1 1 0.000000 15.848358 3.377019 -53.370659 # A 
527 1 1 0.000000 15.929171 4.150301 -54.027004 # A 
528 1 1 0.000000 16.313051 4.498568 -54.852810 # A 
529 1 1 0.000000 15.971599 5.193599 -54.302994 # A 
530 1 1 0.000000 15.225616 4.795517 -54.859936 # A 
531 1 1 0.000000 15.119455 4.726616 -55.835354 # A 
532 1 1 0.000000 14.973855 4.500081 -56.831978 # A 
533 1 1 0.000000 15.078489 5.403872 -57.330452 # A 
534 1 1 0.000000 15.816714 6.052723 -57.731697 # A 
535 1 1 0.000000 15.487314 5.290157 -58.315628 # A 
536 1 1 0.000000 16.234907 5.058618 -57.707191 # A 
537 1 1 0.000000 16.070724 4.363058 -58.303268 # A 
538 1 1 0.000000 15.695967 4.124454 -57.451530 # A 
539 1 1 0.000000 14.944306 4.514238 -57.943287 # A 
540 1 1 0.000000 14.071715 4.273220 -57.318470 # A 
541 1 1 0.000000 13.990038 4.201365 -56.289211 # A 
542 1 1 0.000000 13.128826 3.828074 -56.631119 # A 
543 1 1 0.000000 12.724970 3.945185 -55.732765 # A 
544 1 1 0.000000 11.999058 3.710264 -56.377155 # A 
545 1 1 0.000000 12.275097 4.530883 -56.751331 # A 
546 1 1 0.000000 13.078920 4.848183 -56.206383 # A 
547 1 1 0.000000 12.291810 5.057876 -55.843185 # A 
548 1 1 0.000000 11.725727 4.397544 -55.459229 # A 
549 1 1 0.000000 11.763028 3.424049 -55.408779 # A 
550 1 1 0.000000 12.358772 3.632912 -54.789509 # A 
551 1 1 0.000000 11.419912 3.941404 -54.530106 # A 
552 1 1 0.000000 11.915732 3.751601 -53.798767 # A 
553 1 1 0.000000 12.303972 4.603239 -54.302586 # A 
554 1 1 0.000000 11.963985 5.281055 -54.795368 # A 
555 1 1 0.000000 12.548463 5.930238 -54.287472 # A 
556 1 1 0.000000 12.956182 6.682297 -54.920853 # A 
557 1 1 0.000000 12.256579 6.141078 -55.375175 # A 
558 1 1 0.000000 12.053173 7.058283 -55.665085 # A 
559 1 1 0.000000 11.170450 7.362507 -56.055454 # A 
560 1 1 0.000000 11.266549 7.598097 -55.164997 # A 
561 1 1 0.000000 10.309030 7.804105 -55.557510 # A 
562 1 1 0.000000 10.455483 6.857062 -55.283070 # A 
563 1 1 0.000000 10.908501 6.683919 -54.420044 # A 