LAMMPS data file. CGCMM style. atom_style full generated by VMD/TopoTools v1.7 on Mon Aug 06 11:51:50 EDT 2018
 18000 atoms
 17999 bonds
 17998 angles
 0 dihedrals
 0 impropers
 1 atom types
 1 bond types
 1 angle types
 0 dihedral types
 0 improper types
 25.187838 82.524672  xlo xhi
 31.875860 89.212694  ylo yhi
 -64.103593 -6.766759  zlo zhi

# Pair Coeffs
#
# 1  A

# Bond Coeffs
#
# 1  polymer

# Angle Coeffs
#
# 1  A-A-A

 Masses

 1 1.000000 # A

 Atoms # full

1 1 1 0.000000 13.690667 -3.051129 -20.097084 # A 
2 1 1 0.000000 13.934379 -3.850327 -20.692404 # A 
3 1 1 0.000000 14.443700 -3.925163 -20.022945 # A 
4 1 1 0.000000 14.850827 -5.002895 -19.891870 # A 
5 1 1 0.000000 14.450135 -5.154367 -19.089975 # A 
6 1 1 0.000000 14.749386 -4.994395 -18.282299 # A 
7 1 1 0.000000 15.339789 -5.009024 -17.319904 # A 
8 1 1 0.000000 15.846268 -5.243308 -18.224463 # A 
9 1 1 0.000000 15.626002 -5.014210 -19.044580 # A 
10 1 1 0.000000 15.035432 -4.220555 -19.124891 # A 
11 1 1 0.000000 14.229983 -3.971921 -18.516336 # A 
12 1 1 0.000000 14.251004 -3.007610 -17.970387 # A 
13 1 1 0.000000 13.968764 -2.340322 -17.207874 # A 
14 1 1 0.000000 13.704975 -1.373677 -17.481590 # A 
15 1 1 0.000000 13.656091 -0.476752 -17.699266 # A 
16 1 1 0.000000 13.170291 -0.683344 -16.791052 # A 
17 1 1 0.000000 14.079089 -0.159481 -16.783878 # A 
18 1 1 0.000000 13.497596 0.130401 -16.116159 # A 
19 1 1 0.000000 13.718495 0.970355 -15.585869 # A 
20 1 1 0.000000 14.550122 0.489190 -16.011616 # A 
21 1 1 0.000000 14.081266 0.994354 -16.686214 # A 
22 1 1 0.000000 14.024286 0.722719 -17.652615 # A 
23 1 1 0.000000 13.278718 0.392477 -17.207315 # A 
24 1 1 0.000000 13.197407 1.353289 -17.175905 # A 
25 1 1 0.000000 12.920593 1.034849 -16.367758 # A 
26 1 1 0.000000 12.466906 0.187386 -16.538300 # A 
27 1 1 0.000000 12.305749 -0.275275 -17.314234 # A 
28 1 1 0.000000 12.620844 -0.535112 -18.092270 # A 
29 1 1 0.000000 13.044006 0.175934 -18.215940 # A 
30 1 1 0.000000 12.398798 0.790164 -17.680130 # A 
31 1 1 0.000000 13.141901 1.233863 -18.237892 # A 
32 1 1 0.000000 13.855446 0.691427 -18.762674 # A 
33 1 1 0.000000 14.484816 1.348153 -19.459116 # A 
34 1 1 0.000000 15.207924 1.808490 -20.048321 # A 
35 1 1 0.000000 15.740986 2.553654 -20.335712 # A 
36 1 1 0.000000 16.624472 2.749738 -20.744703 # A 
37 1 1 0.000000 16.912727 2.970833 -19.880434 # A 
38 1 1 0.000000 17.700060 2.616411 -19.516243 # A 
39 1 1 0.000000 17.097857 2.703218 -18.824659 # A 
40 1 1 0.000000 16.648283 1.926506 -18.517923 # A 
41 1 1 0.000000 17.592903 1.753618 -18.814564 # A 
42 1 1 0.000000 17.449762 2.211388 -17.895821 # A 
43 1 1 0.000000 18.264811 1.990298 -17.944571 # A 
44 1 1 0.000000 18.822069 1.568418 -17.335527 # A 
45 1 1 0.000000 19.190275 0.843901 -17.854548 # A 
46 1 1 0.000000 19.257700 0.671830 -16.852343 # A 
47 1 1 0.000000 19.895779 1.378116 -17.111641 # A 
48 1 1 0.000000 19.728914 1.799694 -17.983101 # A 
49 1 1 0.000000 19.123167 1.742299 -18.622778 # A 
50 1 1 0.000000 19.340307 2.175613 -19.497995 # A 
51 1 1 0.000000 19.186436 2.406245 -20.337139 # A 
52 1 1 0.000000 18.685892 2.603605 -20.949934 # A 
53 1 1 0.000000 18.522947 2.540918 -21.785324 # A 
54 1 1 0.000000 18.405277 2.383093 -22.664087 # A 
55 1 1 0.000000 19.174931 1.845012 -23.226847 # A 
56 1 1 0.000000 18.409042 1.296482 -22.844896 # A 
57 1 1 0.000000 19.060600 1.672302 -22.185234 # A 
58 1 1 0.000000 19.465969 2.554704 -22.379517 # A 
59 1 1 0.000000 19.583353 2.327543 -21.398495 # A 
60 1 1 0.000000 19.309708 3.288961 -21.575363 # A 
61 1 1 0.000000 18.204185 3.451216 -21.382565 # A 
62 1 1 0.000000 17.743179 2.851538 -20.592203 # A 
63 1 1 0.000000 17.480293 2.656885 -21.430004 # A 
64 1 1 0.000000 17.744120 1.959457 -21.263252 # A 
65 1 1 0.000000 18.005970 1.607779 -21.884327 # A 
66 1 1 0.000000 18.439844 0.808908 -21.784327 # A 
67 1 1 0.000000 19.044441 0.542621 -22.437571 # A 
68 1 1 0.000000 17.979879 0.270086 -22.611187 # A 
69 1 1 0.000000 17.376879 -0.527157 -22.356339 # A 
70 1 1 0.000000 17.276325 -0.530151 -21.385450 # A 
71 1 1 0.000000 17.217464 0.125023 -20.766245 # A 
72 1 1 0.000000 16.914888 -0.885925 -20.431665 # A 
73 1 1 0.000000 16.096365 -1.166913 -20.832174 # A 
74 1 1 0.000000 16.194780 -0.197928 -21.143532 # A 
75 1 1 0.000000 16.561205 0.129449 -22.056845 # A 
76 1 1 0.000000 15.658262 -0.194094 -22.198158 # A 
77 1 1 0.000000 15.232349 -0.346527 -23.170027 # A 
78 1 1 0.000000 15.524779 -0.985651 -23.958256 # A 
79 1 1 0.000000 15.617901 -1.333131 -22.994610 # A 
80 1 1 0.000000 16.400629 -0.890462 -22.636757 # A 
81 1 1 0.000000 16.308804 -0.370795 -23.435827 # A 
82 1 1 0.000000 17.216682 -0.826591 -23.389164 # A 
83 1 1 0.000000 16.531651 -1.485943 -23.593311 # A 
84 1 1 0.000000 17.096251 -1.890599 -24.205862 # A 
85 1 1 0.000000 16.150412 -2.147066 -24.367819 # A 
86 1 1 0.000000 16.786793 -2.765164 -24.882372 # A 
87 1 1 0.000000 17.424908 -2.812628 -25.669579 # A 
88 1 1 0.000000 17.193022 -1.854045 -25.326279 # A 
89 1 1 0.000000 18.136002 -1.969595 -25.617865 # A 
90 1 1 0.000000 17.931368 -2.498706 -24.764849 # A 
91 1 1 0.000000 18.621521 -2.955865 -25.346067 # A 
92 1 1 0.000000 19.442825 -3.414240 -24.836943 # A 
93 1 1 0.000000 19.465063 -4.226794 -24.234976 # A 
94 1 1 0.000000 20.200113 -4.355696 -23.599764 # A 
95 1 1 0.000000 19.887505 -4.302440 -22.538504 # A 
96 1 1 0.000000 20.109589 -5.275259 -22.971708 # A 
97 1 1 0.000000 19.271038 -4.836486 -23.306208 # A 
98 1 1 0.000000 19.364248 -5.408552 -24.164886 # A 
99 1 1 0.000000 19.128681 -6.355460 -24.760700 # A 
100 1 1 0.000000 19.506121 -7.165419 -24.201096 # A 
101 1 1 0.000000 20.088917 -7.111660 -25.005713 # A 
102 1 1 0.000000 20.918474 -7.092274 -25.466179 # A 
103 1 1 0.000000 21.774519 -7.453300 -25.140736 # A 
104 1 1 0.000000 21.616318 -6.930830 -24.318874 # A 
105 1 1 0.000000 22.298010 -7.653575 -24.199114 # A 
106 1 1 0.000000 21.511414 -7.846668 -23.722719 # A 
107 1 1 0.000000 20.715797 -8.354096 -23.768831 # A 
108 1 1 0.000000 20.384394 -8.537296 -23.017403 # A 
109 1 1 0.000000 19.709475 -8.115981 -22.425482 # A 
110 1 1 0.000000 20.622433 -7.870911 -22.183331 # A 
111 1 1 0.000000 21.553114 -7.494135 -22.122576 # A 
112 1 1 0.000000 22.423599 -7.012995 -22.227385 # A 
113 1 1 0.000000 22.150810 -6.741750 -23.225124 # A 
114 1 1 0.000000 22.322302 -6.124215 -24.024296 # A 
115 1 1 0.000000 22.383858 -5.397124 -24.727329 # A 
116 1 1 0.000000 22.435061 -4.424776 -24.752159 # A 
117 1 1 0.000000 22.139858 -4.739086 -25.582907 # A 
118 1 1 0.000000 21.774563 -5.399381 -26.065208 # A 
119 1 1 0.000000 21.934717 -6.194249 -25.315012 # A 
120 1 1 0.000000 22.801455 -5.642142 -25.793360 # A 
121 1 1 0.000000 23.238274 -4.755219 -25.451061 # A 
122 1 1 0.000000 22.824867 -3.836630 -25.656925 # A 
123 1 1 0.000000 22.766962 -3.269086 -26.514029 # A 
124 1 1 0.000000 22.268604 -2.680930 -27.206352 # A 
125 1 1 0.000000 21.777206 -2.813048 -26.330774 # A 
126 1 1 0.000000 21.266989 -2.497537 -26.917822 # A 
127 1 1 0.000000 20.612329 -1.778514 -27.091011 # A 
128 1 1 0.000000 20.320097 -2.652680 -26.393497 # A 
129 1 1 0.000000 19.615650 -3.128888 -25.905176 # A 
130 1 1 0.000000 19.803730 -3.611418 -26.761204 # A 
131 1 1 0.000000 19.444988 -2.712370 -27.007988 # A 
132 1 1 0.000000 20.296486 -2.809335 -27.474613 # A 
133 1 1 0.000000 21.066111 -3.013596 -27.999374 # A 
134 1 1 0.000000 20.637100 -3.794807 -27.442154 # A 
135 1 1 0.000000 20.998732 -4.089736 -28.328115 # A 
136 1 1 0.000000 20.672888 -4.913618 -28.317715 # A 
137 1 1 0.000000 20.141163 -5.710688 -28.243032 # A 
138 1 1 0.000000 19.283892 -6.232218 -28.173903 # A 
139 1 1 0.000000 19.555096 -5.749064 -27.336794 # A 
140 1 1 0.000000 20.131947 -4.919503 -27.299664 # A 
141 1 1 0.000000 19.314066 -4.778496 -26.797390 # A 
142 1 1 0.000000 19.214796 -5.718104 -26.297829 # A 
143 1 1 0.000000 18.505728 -5.560428 -26.876350 # A 
144 1 1 0.000000 18.149332 -5.792253 -26.061012 # A 
145 1 1 0.000000 18.480774 -6.603386 -26.388454 # A 
146 1 1 0.000000 17.699326 -6.390417 -27.085526 # A 
147 1 1 0.000000 16.756395 -6.579378 -27.765583 # A 
148 1 1 0.000000 15.669370 -6.546227 -27.691303 # A 
149 1 1 0.000000 14.969222 -7.315792 -27.261978 # A 
150 1 1 0.000000 15.906847 -7.514573 -27.364864 # A 
151 1 1 0.000000 16.073545 -7.235646 -28.416294 # A 
152 1 1 0.000000 15.833272 -6.656076 -28.768852 # A 
153 1 1 0.000000 16.224249 -5.960434 -29.213236 # A 
154 1 1 0.000000 15.198772 -5.849406 -29.115488 # A 
155 1 1 0.000000 14.722702 -6.528646 -28.389605 # A 
156 1 1 0.000000 14.616704 -6.320503 -27.362617 # A 
157 1 1 0.000000 13.890936 -6.034226 -26.761751 # A 
158 1 1 0.000000 14.041649 -6.407594 -25.840439 # A 
159 1 1 0.000000 14.114670 -7.551087 -25.768484 # A 
160 1 1 0.000000 13.684265 -7.244136 -26.564533 # A 
161 1 1 0.000000 13.977423 -7.753717 -27.450598 # A 
162 1 1 0.000000 13.955262 -7.431466 -28.465099 # A 
163 1 1 0.000000 14.480994 -7.679075 -29.300190 # A 
164 1 1 0.000000 14.441671 -7.707038 -30.235298 # A 
165 1 1 0.000000 14.201414 -7.197355 -30.936735 # A 
166 1 1 0.000000 14.046391 -6.718935 -30.080194 # A 
167 1 1 0.000000 13.222624 -6.297260 -30.608139 # A 
168 1 1 0.000000 12.406724 -5.610837 -30.654085 # A 
169 1 1 0.000000 13.177480 -5.175218 -31.196417 # A 
170 1 1 0.000000 12.742752 -4.250302 -31.291643 # A 
171 1 1 0.000000 13.392485 -4.570347 -32.138214 # A 
172 1 1 0.000000 13.041995 -4.946262 -32.970074 # A 
173 1 1 0.000000 13.075239 -4.931452 -33.911514 # A 
174 1 1 0.000000 13.313585 -4.111785 -34.352272 # A 
175 1 1 0.000000 14.135531 -4.725619 -34.022163 # A 
176 1 1 0.000000 14.993872 -4.178773 -33.752674 # A 
177 1 1 0.000000 14.888219 -4.119100 -32.753910 # A 
178 1 1 0.000000 14.917619 -3.264104 -33.124382 # A 
179 1 1 0.000000 14.614758 -2.447170 -33.545704 # A 
180 1 1 0.000000 14.853571 -1.723630 -32.905220 # A 
181 1 1 0.000000 14.736073 -2.515843 -32.392147 # A 
182 1 1 0.000000 15.066589 -3.236875 -32.027843 # A 
183 1 1 0.000000 15.990222 -3.083847 -31.589432 # A 
184 1 1 0.000000 16.841490 -3.532412 -31.834215 # A 
185 1 1 0.000000 17.006723 -2.783634 -31.156746 # A 
186 1 1 0.000000 18.007202 -2.940836 -31.309725 # A 
187 1 1 0.000000 18.730812 -2.276824 -31.456697 # A 
188 1 1 0.000000 18.411654 -2.405350 -32.262779 # A 
189 1 1 0.000000 18.697332 -3.217183 -32.109886 # A 
190 1 1 0.000000 19.435257 -2.619721 -32.330814 # A 
191 1 1 0.000000 20.181843 -2.716941 -31.830227 # A 
192 1 1 0.000000 20.087448 -3.485305 -32.476616 # A 
193 1 1 0.000000 19.931629 -3.658666 -33.369408 # A 
194 1 1 0.000000 19.103401 -3.894423 -32.834179 # A 
195 1 1 0.000000 18.565935 -4.504510 -33.623711 # A 
196 1 1 0.000000 17.627365 -4.845340 -34.170235 # A 
197 1 1 0.000000 17.641567 -5.587818 -34.785152 # A 
198 1 1 0.000000 17.914793 -4.753381 -35.321636 # A 
199 1 1 0.000000 18.791927 -4.523460 -35.868137 # A 
200 1 1 0.000000 19.424379 -4.587028 -36.609413 # A 
201 1 1 0.000000 19.692638 -3.669955 -36.242348 # A 
202 1 1 0.000000 19.934704 -4.436552 -35.655186 # A 
203 1 1 0.000000 20.889484 -3.934965 -35.794956 # A 
204 1 1 0.000000 21.883116 -3.758297 -35.446388 # A 
205 1 1 0.000000 22.909990 -4.016555 -35.050930 # A 
206 1 1 0.000000 23.582508 -4.096009 -35.678059 # A 
207 1 1 0.000000 24.415756 -3.969995 -35.576847 # A 
208 1 1 0.000000 24.894018 -4.498526 -34.844284 # A 
209 1 1 0.000000 25.486507 -3.945803 -35.352192 # A 
210 1 1 0.000000 25.156391 -3.283058 -34.787132 # A 
211 1 1 0.000000 24.819139 -2.588893 -34.211987 # A 
212 1 1 0.000000 24.975685 -1.859567 -34.615055 # A 
213 1 1 0.000000 25.730368 -1.584318 -34.283535 # A 
214 1 1 0.000000 25.695578 -1.168935 -35.177231 # A 
215 1 1 0.000000 25.545099 -1.991229 -35.539806 # A 
216 1 1 0.000000 25.340376 -1.440179 -36.296200 # A 
217 1 1 0.000000 25.097383 -0.810404 -36.932930 # A 
218 1 1 0.000000 24.263437 -1.444419 -36.642193 # A 
219 1 1 0.000000 24.273346 -0.633280 -36.260773 # A 
220 1 1 0.000000 24.653450 -1.199309 -35.483696 # A 
221 1 1 0.000000 24.423204 -0.364779 -35.219574 # A 
222 1 1 0.000000 24.899925 -0.809228 -34.443695 # A 
223 1 1 0.000000 25.412945 -0.157138 -34.906319 # A 
224 1 1 0.000000 25.294935 -0.394731 -35.903923 # A 
225 1 1 0.000000 26.248503 -0.743442 -36.089905 # A 
226 1 1 0.000000 27.385098 -0.713785 -35.917068 # A 
227 1 1 0.000000 27.039024 -0.318026 -35.123909 # A 
228 1 1 0.000000 27.513216 -1.015539 -34.636021 # A 
229 1 1 0.000000 28.057474 -1.382921 -35.354530 # A 
230 1 1 0.000000 28.202209 -0.336837 -35.201977 # A 
231 1 1 0.000000 29.126530 -0.162204 -35.495251 # A 
232 1 1 0.000000 29.110458 -1.131980 -35.389385 # A 
233 1 1 0.000000 29.416414 -0.912251 -36.326698 # A 
234 1 1 0.000000 28.481649 -0.796317 -36.188339 # A 
235 1 1 0.000000 28.800919 0.077652 -36.451756 # A 
236 1 1 0.000000 28.992527 0.855212 -37.097984 # A 
237 1 1 0.000000 29.680359 0.823817 -36.425186 # A 
238 1 1 0.000000 29.820578 0.044483 -36.987381 # A 
239 1 1 0.000000 30.002251 0.265536 -37.896328 # A 
240 1 1 0.000000 30.797098 0.531438 -37.175323 # A 
241 1 1 0.000000 30.127014 1.135106 -37.331074 # A 
242 1 1 0.000000 29.479048 1.779721 -37.346100 # A 
243 1 1 0.000000 29.975170 1.919301 -36.604580 # A 
244 1 1 0.000000 28.974415 1.679272 -36.323219 # A 
245 1 1 0.000000 28.189962 2.193016 -36.300873 # A 
246 1 1 0.000000 28.490816 2.213170 -37.171143 # A 
247 1 1 0.000000 27.492849 2.233522 -37.189648 # A 
248 1 1 0.000000 26.846449 2.427398 -37.933044 # A 
249 1 1 0.000000 26.722834 1.499713 -37.548801 # A 
250 1 1 0.000000 27.021181 0.891243 -38.200504 # A 
251 1 1 0.000000 27.664261 0.595809 -38.900692 # A 
252 1 1 0.000000 27.545071 -0.336918 -39.111389 # A 
253 1 1 0.000000 26.792114 -0.260779 -39.708221 # A 
254 1 1 0.000000 26.796324 -1.143523 -39.434040 # A 
255 1 1 0.000000 26.969328 -1.043758 -38.470844 # A 
256 1 1 0.000000 27.137213 -1.951905 -38.695961 # A 
257 1 1 0.000000 27.546515 -2.903883 -38.543339 # A 
258 1 1 0.000000 27.100090 -2.576679 -37.838081 # A 
259 1 1 0.000000 26.492622 -1.776028 -37.795429 # A 
260 1 1 0.000000 25.867325 -1.594795 -37.260635 # A 
261 1 1 0.000000 24.959627 -2.051381 -37.180386 # A 
262 1 1 0.000000 24.734341 -2.358633 -36.280910 # A 
263 1 1 0.000000 24.470846 -2.424560 -35.473324 # A 
264 1 1 0.000000 23.920231 -2.299409 -34.715542 # A 
265 1 1 0.000000 23.421888 -3.014257 -35.368793 # A 
266 1 1 0.000000 23.970642 -3.408376 -34.801815 # A 
267 1 1 0.000000 24.502705 -3.661810 -33.901592 # A 
268 1 1 0.000000 24.594662 -4.017024 -32.828430 # A 
269 1 1 0.000000 25.625896 -4.084978 -32.462109 # A 
270 1 1 0.000000 25.415655 -3.359807 -33.227428 # A 
271 1 1 0.000000 25.061085 -3.158110 -32.305481 # A 
272 1 1 0.000000 25.639938 -2.384757 -32.145908 # A 
273 1 1 0.000000 26.189926 -3.102939 -32.512939 # A 
274 1 1 0.000000 25.882858 -3.396244 -31.625042 # A 
275 1 1 0.000000 25.854967 -4.359584 -31.410093 # A 
276 1 1 0.000000 24.936714 -4.110965 -31.607393 # A 
277 1 1 0.000000 25.181753 -5.097496 -31.942038 # A 
278 1 1 0.000000 25.187469 -5.037860 -30.932596 # A 
279 1 1 0.000000 24.592245 -5.512685 -30.206867 # A 
280 1 1 0.000000 25.304754 -6.157059 -30.488262 # A 
281 1 1 0.000000 25.608133 -5.974904 -31.326605 # A 
282 1 1 0.000000 24.579576 -6.286462 -31.290401 # A 
283 1 1 0.000000 25.136841 -6.301243 -32.269497 # A 
284 1 1 0.000000 24.647316 -5.848239 -33.099545 # A 
285 1 1 0.000000 24.270445 -5.457232 -34.082005 # A 
286 1 1 0.000000 23.700455 -6.210836 -33.621525 # A 
287 1 1 0.000000 23.185568 -5.386114 -34.001671 # A 
288 1 1 0.000000 23.612909 -4.702903 -34.613125 # A 
289 1 1 0.000000 24.074986 -5.014910 -35.291832 # A 
290 1 1 0.000000 23.051098 -5.183791 -35.506020 # A 
291 1 1 0.000000 22.497005 -4.569401 -35.959511 # A 
292 1 1 0.000000 22.707598 -3.643970 -36.165581 # A 
293 1 1 0.000000 21.716576 -3.574487 -36.487389 # A 
294 1 1 0.000000 22.168858 -2.748588 -36.269417 # A 
295 1 1 0.000000 21.496395 -2.480630 -36.924335 # A 
296 1 1 0.000000 22.151230 -1.720107 -36.792023 # A 
297 1 1 0.000000 21.996655 -0.946916 -37.358677 # A 
298 1 1 0.000000 22.869856 -0.735319 -37.469437 # A 
299 1 1 0.000000 22.807974 -1.735902 -37.661732 # A 
300 1 1 0.000000 23.755388 -2.262751 -37.393360 # A 
301 1 1 0.000000 24.000578 -3.056296 -38.116695 # A 
302 1 1 0.000000 23.718170 -3.994442 -38.174908 # A 
303 1 1 0.000000 23.972216 -4.748911 -37.425552 # A 
304 1 1 0.000000 24.075186 -5.619134 -37.279373 # A 
305 1 1 0.000000 23.637516 -6.463019 -36.924133 # A 
306 1 1 0.000000 22.733629 -6.842292 -36.498344 # A 
307 1 1 0.000000 21.772005 -7.043193 -36.979179 # A 
308 1 1 0.000000 21.672014 -7.094282 -36.036331 # A 
309 1 1 0.000000 21.564272 -8.047433 -35.979343 # A 
310 1 1 0.000000 20.930933 -7.740074 -36.603596 # A 
311 1 1 0.000000 19.989712 -7.295402 -36.814426 # A 
312 1 1 0.000000 19.196613 -7.757860 -36.276760 # A 
313 1 1 0.000000 18.659273 -7.098733 -36.714622 # A 
314 1 1 0.000000 18.412840 -6.161016 -36.604847 # A 
315 1 1 0.000000 17.573336 -5.684324 -36.474930 # A 
316 1 1 0.000000 17.111273 -4.912754 -35.931789 # A 
317 1 1 0.000000 16.307985 -4.160228 -35.980721 # A 
318 1 1 0.000000 15.965861 -5.084654 -35.944069 # A 
319 1 1 0.000000 16.376698 -5.215273 -35.191292 # A 
320 1 1 0.000000 16.491570 -4.413110 -34.807961 # A 
321 1 1 0.000000 16.020420 -4.817298 -34.171551 # A 
322 1 1 0.000000 16.228935 -5.272752 -33.356083 # A 
323 1 1 0.000000 16.857925 -4.584849 -33.423149 # A 
324 1 1 0.000000 15.983389 -4.164821 -33.192795 # A 
325 1 1 0.000000 15.953926 -3.411114 -32.660183 # A 
326 1 1 0.000000 16.515270 -2.581080 -32.429432 # A 
327 1 1 0.000000 17.429737 -2.776525 -32.220100 # A 
328 1 1 0.000000 17.420404 -1.763724 -32.130524 # A 
329 1 1 0.000000 17.537088 -1.074617 -32.886894 # A 
330 1 1 0.000000 18.392645 -1.483727 -32.817608 # A 
331 1 1 0.000000 17.640760 -2.205180 -33.090927 # A 
332 1 1 0.000000 18.021454 -1.546587 -33.815956 # A 
333 1 1 0.000000 18.347462 -1.374020 -34.827656 # A 
334 1 1 0.000000 18.141645 -1.910970 -35.769875 # A 
335 1 1 0.000000 17.305593 -2.022143 -36.264000 # A 
336 1 1 0.000000 16.791683 -2.388259 -37.082241 # A 
337 1 1 0.000000 16.207108 -2.185769 -36.419464 # A 
338 1 1 0.000000 15.755939 -2.187259 -37.353359 # A 
339 1 1 0.000000 16.276512 -1.475127 -37.616917 # A 
340 1 1 0.000000 16.724148 -1.291016 -36.816452 # A 
341 1 1 0.000000 17.523878 -1.661354 -37.290894 # A 
342 1 1 0.000000 18.277887 -1.556405 -36.810101 # A 
343 1 1 0.000000 18.682467 -2.256125 -37.327492 # A 
344 1 1 0.000000 17.985134 -2.713765 -36.863186 # A 
345 1 1 0.000000 18.483276 -3.324390 -37.418728 # A 
346 1 1 0.000000 18.619051 -3.666520 -36.585304 # A 
347 1 1 0.000000 17.898853 -4.168210 -36.835968 # A 
348 1 1 0.000000 18.791315 -4.408014 -37.429268 # A 
349 1 1 0.000000 18.453085 -5.059612 -36.796738 # A 
350 1 1 0.000000 19.216642 -5.444755 -37.323177 # A 
351 1 1 0.000000 19.698055 -6.327793 -37.579712 # A 
352 1 1 0.000000 20.182663 -6.972911 -38.062077 # A 
353 1 1 0.000000 20.866909 -7.220579 -37.551605 # A 
354 1 1 0.000000 21.268385 -6.406713 -37.843307 # A 
355 1 1 0.000000 21.929340 -7.195649 -38.067802 # A 
356 1 1 0.000000 22.570829 -6.476102 -37.517448 # A 
357 1 1 0.000000 22.861444 -5.691058 -36.778111 # A 
358 1 1 0.000000 23.407148 -4.892909 -36.535603 # A 
359 1 1 0.000000 23.898466 -5.707077 -36.123867 # A 
360 1 1 0.000000 23.970287 -6.661558 -35.831688 # A 
361 1 1 0.000000 24.205564 -6.060701 -35.124844 # A 
362 1 1 0.000000 24.879000 -6.106507 -35.800213 # A 
363 1 1 0.000000 25.834970 -5.940825 -35.994232 # A 
364 1 1 0.000000 26.382729 -5.821896 -36.709583 # A 
365 1 1 0.000000 26.633204 -5.561815 -37.480274 # A 
366 1 1 0.000000 27.106976 -6.101148 -37.997448 # A 
367 1 1 0.000000 27.643944 -6.136327 -38.576008 # A 
368 1 1 0.000000 27.035606 -5.217103 -38.533581 # A 
369 1 1 0.000000 26.913897 -5.473660 -39.220806 # A 
370 1 1 0.000000 26.247803 -5.380946 -39.821297 # A 
371 1 1 0.000000 26.071960 -4.617020 -40.375504 # A 
372 1 1 0.000000 25.955111 -3.772897 -40.963417 # A 
373 1 1 0.000000 25.324808 -3.295079 -41.662636 # A 
374 1 1 0.000000 25.865906 -3.051502 -42.653374 # A 
375 1 1 0.000000 26.441601 -3.279183 -41.779385 # A 
376 1 1 0.000000 26.041855 -2.382305 -41.669827 # A 
377 1 1 0.000000 26.991323 -2.386805 -41.533833 # A 
378 1 1 0.000000 26.557407 -1.483083 -41.328159 # A 
379 1 1 0.000000 26.451584 -0.643553 -40.602856 # A 
380 1 1 0.000000 25.498438 -0.445582 -40.311432 # A 
381 1 1 0.000000 25.050646 -0.531606 -39.468124 # A 
382 1 1 0.000000 25.795019 0.181349 -39.440933 # A 
383 1 1 0.000000 26.010242 -0.566156 -38.997154 # A 
384 1 1 0.000000 26.510454 -0.045012 -38.704235 # A 
385 1 1 0.000000 25.750938 0.558277 -38.364716 # A 
386 1 1 0.000000 24.899818 0.394895 -38.932247 # A 
387 1 1 0.000000 23.973501 0.469988 -38.637253 # A 
388 1 1 0.000000 24.693325 0.524703 -37.869541 # A 
389 1 1 0.000000 24.606331 1.375285 -38.450794 # A 
390 1 1 0.000000 23.869631 1.843378 -39.067661 # A 
391 1 1 0.000000 23.704155 2.643907 -39.745022 # A 
392 1 1 0.000000 22.864901 2.391829 -39.351860 # A 
393 1 1 0.000000 22.640623 2.868551 -40.255527 # A 
394 1 1 0.000000 21.881922 2.760118 -40.972996 # A 
395 1 1 0.000000 21.720568 3.534711 -40.405926 # A 
396 1 1 0.000000 22.043810 4.145625 -39.669319 # A 
397 1 1 0.000000 22.199083 3.271003 -39.380527 # A 
398 1 1 0.000000 21.328432 3.183661 -39.447624 # A 
399 1 1 0.000000 20.952911 4.088997 -39.860523 # A 
400 1 1 0.000000 21.243923 4.126512 -38.908550 # A 
401 1 1 0.000000 20.355474 4.296877 -38.574886 # A 
402 1 1 0.000000 20.287449 3.529677 -39.171028 # A 
403 1 1 0.000000 20.422846 3.160908 -40.069336 # A 
404 1 1 0.000000 19.915243 2.515721 -40.628925 # A 
405 1 1 0.000000 20.733130 2.635563 -41.068935 # A 
406 1 1 0.000000 21.208799 2.014560 -41.805702 # A 
407 1 1 0.000000 20.534834 2.452612 -42.453522 # A 
408 1 1 0.000000 21.027788 3.056534 -41.971775 # A 
409 1 1 0.000000 20.880466 3.452449 -42.804157 # A 
410 1 1 0.000000 20.528706 3.936689 -41.843864 # A 
411 1 1 0.000000 19.895819 3.312929 -42.312141 # A 
412 1 1 0.000000 19.595564 4.204396 -42.365463 # A 
413 1 1 0.000000 20.394485 4.517178 -42.761070 # A 
414 1 1 0.000000 19.966732 3.806149 -43.316460 # A 
415 1 1 0.000000 20.741257 3.361614 -43.882275 # A 
416 1 1 0.000000 20.859627 2.826427 -44.644199 # A 
417 1 1 0.000000 20.159651 2.295896 -44.674202 # A 
418 1 1 0.000000 20.232222 1.563817 -44.097698 # A 
419 1 1 0.000000 20.199066 2.403806 -43.529942 # A 
420 1 1 0.000000 20.855223 1.608568 -43.192341 # A 
421 1 1 0.000000 21.195595 2.571442 -43.359226 # A 
422 1 1 0.000000 21.810806 2.681173 -42.592915 # A 
423 1 1 0.000000 21.754200 1.746874 -42.680389 # A 
424 1 1 0.000000 22.119816 2.153628 -43.652149 # A 
425 1 1 0.000000 22.092865 1.385633 -44.473927 # A 
426 1 1 0.000000 22.374817 0.682763 -45.135944 # A 
427 1 1 0.000000 22.239662 1.453748 -45.663139 # A 
428 1 1 0.000000 22.173500 2.128322 -46.584560 # A 
429 1 1 0.000000 22.551880 2.526758 -45.732998 # A 
430 1 1 0.000000 21.772793 2.320789 -45.027515 # A 
431 1 1 0.000000 21.200537 1.910890 -44.245205 # A 
432 1 1 0.000000 20.929832 1.579766 -45.019814 # A 
433 1 1 0.000000 20.899237 2.330747 -45.660770 # A 
434 1 1 0.000000 21.585625 2.895865 -46.084518 # A 
435 1 1 0.000000 20.959095 3.241758 -46.846970 # A 
436 1 1 0.000000 21.526144 3.684983 -47.592010 # A 
437 1 1 0.000000 21.874750 2.899091 -47.344631 # A 
438 1 1 0.000000 21.798403 2.279941 -47.946846 # A 
439 1 1 0.000000 22.316505 1.543874 -48.323479 # A 
440 1 1 0.000000 21.685163 2.088362 -49.029526 # A 
441 1 1 0.000000 22.411951 2.461403 -48.876415 # A 
442 1 1 0.000000 22.957422 2.716130 -49.396393 # A 
443 1 1 0.000000 23.281960 3.060691 -50.320587 # A 
444 1 1 0.000000 24.279175 2.848132 -50.623371 # A 
445 1 1 0.000000 24.849709 3.034374 -51.412601 # A 
446 1 1 0.000000 24.899302 3.827302 -50.803673 # A 
447 1 1 0.000000 24.348867 4.010585 -51.645271 # A 
448 1 1 0.000000 25.216618 4.557178 -51.588917 # A 
449 1 1 0.000000 26.165783 4.396856 -51.379410 # A 
450 1 1 0.000000 25.940016 5.246467 -50.922363 # A 
451 1 1 0.000000 25.401457 5.786582 -50.327839 # A 
452 1 1 0.000000 24.922213 4.916677 -50.570332 # A 
453 1 1 0.000000 24.289333 5.679579 -50.378036 # A 
454 1 1 0.000000 23.640673 4.945176 -50.203373 # A 
455 1 1 0.000000 22.776638 5.443955 -49.795143 # A 
456 1 1 0.000000 22.745363 4.525067 -49.676483 # A 
457 1 1 0.000000 22.040266 4.114792 -49.356262 # A 
458 1 1 0.000000 21.845140 4.253797 -48.477154 # A 
459 1 1 0.000000 22.416059 4.210976 -47.814827 # A 
460 1 1 0.000000 22.769928 4.085541 -46.962177 # A 
461 1 1 0.000000 23.528877 4.728958 -46.843102 # A 
462 1 1 0.000000 23.027527 5.104357 -46.100288 # A 
463 1 1 0.000000 23.162914 6.158549 -45.962624 # A 
464 1 1 0.000000 23.360903 5.778646 -46.870739 # A 
465 1 1 0.000000 22.805128 5.411996 -47.735897 # A 
466 1 1 0.000000 23.390030 4.613140 -47.904194 # A 
467 1 1 0.000000 23.396008 3.641074 -47.742455 # A 
468 1 1 0.000000 24.125874 3.204326 -47.839722 # A 
469 1 1 0.000000 24.283400 4.205943 -47.387581 # A 
470 1 1 0.000000 25.076452 3.470295 -47.338776 # A 
471 1 1 0.000000 24.278234 3.363795 -46.713528 # A 
472 1 1 0.000000 24.349482 2.409044 -46.255234 # A 
473 1 1 0.000000 24.572430 2.366373 -47.133892 # A 
474 1 1 0.000000 24.827250 1.583519 -47.507008 # A 
475 1 1 0.000000 24.126881 1.106315 -48.039410 # A 
476 1 1 0.000000 23.348074 1.550375 -48.679409 # A 
477 1 1 0.000000 22.694609 1.549395 -49.286201 # A 
478 1 1 0.000000 23.329815 0.885707 -49.641068 # A 
479 1 1 0.000000 22.565449 0.988059 -50.294781 # A 
480 1 1 0.000000 22.691078 1.503557 -51.106457 # A 
481 1 1 0.000000 23.562132 2.147005 -51.154617 # A 
482 1 1 0.000000 23.786423 3.004359 -51.659286 # A 
483 1 1 0.000000 24.281553 3.235918 -52.471233 # A 
484 1 1 0.000000 23.611029 3.574511 -53.224018 # A 
485 1 1 0.000000 22.596897 3.791727 -53.234028 # A 
486 1 1 0.000000 21.756048 3.763857 -53.781322 # A 
487 1 1 0.000000 21.162710 3.579336 -52.979771 # A 
488 1 1 0.000000 20.973394 4.425281 -53.369156 # A 
489 1 1 0.000000 21.793077 4.475932 -52.866035 # A 
490 1 1 0.000000 20.996504 4.388833 -52.274475 # A 
491 1 1 0.000000 20.674143 4.402252 -51.345634 # A 
492 1 1 0.000000 19.972340 3.786135 -50.856514 # A 
493 1 1 0.000000 19.461678 3.274488 -50.114063 # A 
494 1 1 0.000000 19.427391 4.282849 -50.059254 # A 
495 1 1 0.000000 20.171398 3.900968 -49.634357 # A 
496 1 1 0.000000 20.581310 4.356463 -50.226349 # A 
497 1 1 0.000000 21.098942 4.626662 -49.630630 # A 
498 1 1 0.000000 20.562984 4.802731 -49.172127 # A 
499 1 1 0.000000 20.955122 3.889935 -48.909584 # A 
500 1 1 0.000000 20.974318 2.990568 -48.185318 # A 
501 1 1 0.000000 21.613157 3.148061 -48.608662 # A 
502 1 1 0.000000 21.841719 3.098626 -49.490322 # A 
503 1 1 0.000000 21.292646 3.591826 -49.999802 # A 
504 1 1 0.000000 20.567266 3.061412 -50.245998 # A 
505 1 1 0.000000 20.773949 2.896060 -49.303829 # A 
506 1 1 0.000000 20.980431 2.130197 -49.923092 # A 
507 1 1 0.000000 19.932030 2.314357 -49.720417 # A 
508 1 1 0.000000 19.070307 2.239226 -50.136826 # A 
509 1 1 0.000000 18.625334 1.576152 -49.812687 # A 
510 1 1 0.000000 18.076586 2.095296 -50.522022 # A 
511 1 1 0.000000 18.296103 3.064918 -50.281590 # A 
512 1 1 0.000000 17.296314 2.927824 -50.397564 # A 
513 1 1 0.000000 16.416981 3.196818 -50.895744 # A 
514 1 1 0.000000 16.808918 3.940950 -50.433876 # A 
515 1 1 0.000000 16.848038 4.762676 -50.934124 # A 
516 1 1 0.000000 16.565454 5.069437 -50.189987 # A 
517 1 1 0.000000 16.684834 6.089612 -50.195652 # A 
518 1 1 0.000000 16.234360 5.706244 -51.060928 # A 
519 1 1 0.000000 15.761210 6.396586 -50.816296 # A 
520 1 1 0.000000 15.640285 5.793086 -50.097511 # A 
521 1 1 0.000000 15.590817 4.766831 -49.787815 # A 
522 1 1 0.000000 15.594752 4.870311 -50.786201 # A 
523 1 1 0.000000 15.891352 4.194275 -51.000507 # A 
524 1 1 0.000000 15.352286 3.545500 -50.995598 # A 
525 1 1 0.000000 16.025192 3.517447 -51.882244 # A 
526 1 1 0.000000 15.417569 3.521023 -52.594929 # A 
527 1 1 0.000000 15.480326 4.293124 -53.287888 # A 
528 1 1 0.000000 15.816486 4.696724 -54.146935 # A 
529 1 1 0.000000 15.474138 5.331695 -53.597157 # A 
530 1 1 0.000000 14.747375 4.900303 -54.075626 # A 
531 1 1 0.000000 15.003327 5.339309 -54.952557 # A 
532 1 1 0.000000 14.599708 5.885603 -55.756516 # A 
533 1 1 0.000000 15.243148 6.403186 -56.451004 # A 
534 1 1 0.000000 15.612814 6.767309 -57.319763 # A 
535 1 1 0.000000 15.539730 5.749992 -57.352291 # A 
536 1 1 0.000000 16.346361 5.085380 -57.103954 # A 
537 1 1 0.000000 16.094294 5.054157 -58.055183 # A 
538 1 1 0.000000 15.401226 4.597727 -57.427212 # A 
539 1 1 0.000000 14.431220 4.417409 -57.032692 # A 
540 1 1 0.000000 13.451693 4.214675 -56.666336 # A 
541 1 1 0.000000 13.258434 4.167499 -55.629910 # A 
542 1 1 0.000000 12.513971 3.851482 -56.021881 # A 
543 1 1 0.000000 12.311717 3.980192 -54.991688 # A 
544 1 1 0.000000 11.510131 4.037956 -55.639679 # A 
545 1 1 0.000000 11.830132 4.677407 -56.229679 # A 
546 1 1 0.000000 12.417113 4.961751 -55.534161 # A 
547 1 1 0.000000 11.602773 5.044119 -55.163319 # A 
548 1 1 0.000000 11.249369 4.464888 -54.599739 # A 
549 1 1 0.000000 11.166910 3.639997 -54.674252 # A 
550 1 1 0.000000 11.855866 3.694884 -54.036224 # A 
551 1 1 0.000000 10.898398 3.876683 -53.696873 # A 
552 1 1 0.000000 11.469984 3.800137 -53.044102 # A 
553 1 1 0.000000 11.673202 4.700668 -53.618965 # A 
554 1 1 0.000000 11.599972 5.455017 -54.198990 # A 
555 1 1 0.000000 11.967322 6.122364 -53.628468 # A 
556 1 1 0.000000 12.538954 6.736889 -54.211647 # A 
557 1 1 0.000000 11.891094 6.296681 -54.808498 # A 
558 1 1 0.000000 11.561797 7.153348 -54.939964 # A 
559 1 1 0.000000 10.675786 7.460688 -55.332066 # A 
560 1 1 0.000000 10.752528 7.717973 -54.460838 # A 
561 1 1 0.000000 9.809605 7.919413 -54.843178 # A 
562 1 1 0.000000 9.936852 6.969506 -54.571926 # A 
563 1 1 0.000000 10.401565 6.793917 -53.716301 # A 