LAMMPS data file. CGCMM style. atom_style full generated by VMD/TopoTools v1.7 on Mon Aug 06 11:42:41 EDT 2018
 14000 atoms
 13999 bonds
 13998 angles
 0 dihedrals
 0 impropers
 1 atom types
 1 bond types
 1 angle types
 0 dihedral types
 0 improper types
 26.513257 79.242581  xlo xhi
 45.043090 97.772414  ylo yhi
 -81.348336 -28.619012  zlo zhi

# Pair Coeffs
#
# 1  A

# Bond Coeffs
#
# 1  polymer

# Angle Coeffs
#
# 1  A-A-A

 Masses

 1 1.000000 # A

 Atoms # full

1 1 1 0.000000 12.755094 -3.142590 -17.768782 # A 
2 1 1 0.000000 13.475856 -2.522838 -18.164471 # A 
3 1 1 0.000000 13.375449 -3.314585 -18.732430 # A 
4 1 1 0.000000 13.764780 -3.539493 -17.894209 # A 
5 1 1 0.000000 13.082475 -4.292954 -17.675432 # A 
6 1 1 0.000000 13.388112 -4.898594 -16.875196 # A 
7 1 1 0.000000 13.915272 -4.548335 -16.062241 # A 
8 1 1 0.000000 14.519337 -4.925542 -16.763691 # A 
9 1 1 0.000000 14.106439 -4.578064 -17.649595 # A 
10 1 1 0.000000 14.065309 -3.917555 -16.918289 # A 
11 1 1 0.000000 13.187133 -3.845295 -16.667501 # A 
12 1 1 0.000000 13.377368 -2.892301 -16.391893 # A 
13 1 1 0.000000 13.011783 -1.849411 -16.271326 # A 
14 1 1 0.000000 12.620738 -0.970869 -16.072100 # A 
15 1 1 0.000000 12.440334 -0.025581 -16.243662 # A 
16 1 1 0.000000 11.803112 -0.398402 -15.609076 # A 
17 1 1 0.000000 12.081215 -0.288137 -14.744917 # A 
18 1 1 0.000000 12.129855 0.574497 -14.390097 # A 
19 1 1 0.000000 12.380983 1.252721 -13.719687 # A 
20 1 1 0.000000 13.223615 0.864981 -14.121798 # A 
21 1 1 0.000000 12.752666 1.354109 -14.834537 # A 
22 1 1 0.000000 12.848814 0.956912 -15.725090 # A 
23 1 1 0.000000 12.179667 0.655554 -15.443671 # A 
24 1 1 0.000000 11.918672 1.544059 -15.587426 # A 
25 1 1 0.000000 11.453399 1.303804 -14.809609 # A 
26 1 1 0.000000 11.193175 0.345351 -15.054178 # A 
27 1 1 0.000000 11.139006 0.857210 -15.886707 # A 
28 1 1 0.000000 11.330890 0.143649 -16.429564 # A 
29 1 1 0.000000 12.021470 0.265724 -17.211056 # A 
30 1 1 0.000000 12.017962 0.989229 -16.512552 # A 
31 1 1 0.000000 12.506248 1.710594 -16.453415 # A 
32 1 1 0.000000 12.477481 1.619209 -17.432798 # A 
33 1 1 0.000000 12.866041 2.221079 -18.161858 # A 
34 1 1 0.000000 13.401012 1.969014 -19.014444 # A 
35 1 1 0.000000 13.853274 2.666514 -18.528469 # A 
36 1 1 0.000000 14.830012 2.786005 -18.917435 # A 
37 1 1 0.000000 15.711430 2.894404 -18.747562 # A 
38 1 1 0.000000 15.499838 2.745837 -17.789101 # A 
39 1 1 0.000000 15.565929 3.076929 -16.783634 # A 
40 1 1 0.000000 15.798934 2.148838 -16.884417 # A 
41 1 1 0.000000 16.503456 2.238437 -16.265188 # A 
42 1 1 0.000000 16.489622 3.208529 -16.141514 # A 
43 1 1 0.000000 17.323286 2.693100 -15.826788 # A 
44 1 1 0.000000 18.215023 2.343504 -15.850136 # A 
45 1 1 0.000000 18.299768 1.453621 -16.115587 # A 
46 1 1 0.000000 18.253483 1.322620 -15.189891 # A 
47 1 1 0.000000 19.095270 1.792096 -15.421244 # A 
48 1 1 0.000000 19.240917 2.313697 -16.177967 # A 
49 1 1 0.000000 18.718836 2.102274 -16.907555 # A 
50 1 1 0.000000 18.369385 2.736572 -17.493774 # A 
51 1 1 0.000000 17.930182 2.894087 -18.460882 # A 
52 1 1 0.000000 17.717375 2.768212 -19.416870 # A 
53 1 1 0.000000 17.598820 3.055299 -20.410593 # A 
54 1 1 0.000000 17.293566 2.656897 -21.026447 # A 
55 1 1 0.000000 17.769043 2.233554 -21.814180 # A 
56 1 1 0.000000 17.217766 1.628473 -21.264175 # A 
57 1 1 0.000000 18.100729 1.904318 -20.787174 # A 
58 1 1 0.000000 18.440435 2.742502 -21.064058 # A 
59 1 1 0.000000 18.597618 2.743187 -20.047716 # A 
60 1 1 0.000000 18.231071 3.700947 -19.819855 # A 
61 1 1 0.000000 17.177391 3.733879 -19.641872 # A 
62 1 1 0.000000 16.837399 3.162354 -18.901367 # A 
63 1 1 0.000000 16.105370 3.472378 -19.624945 # A 
64 1 1 0.000000 16.658319 2.750674 -19.980524 # A 
65 1 1 0.000000 17.273617 2.050897 -20.104681 # A 
66 1 1 0.000000 17.286692 1.132633 -20.277151 # A 
67 1 1 0.000000 17.911890 0.812846 -20.977654 # A 
68 1 1 0.000000 16.953819 0.569314 -21.192862 # A 
69 1 1 0.000000 16.327139 0.066028 -20.841005 # A 
70 1 1 0.000000 15.968243 -0.253914 -20.060757 # A 
71 1 1 0.000000 16.179180 0.340889 -19.399382 # A 
72 1 1 0.000000 15.622640 -0.497731 -19.034956 # A 
73 1 1 0.000000 14.950449 -0.719454 -19.915586 # A 
74 1 1 0.000000 15.001707 0.192691 -19.569426 # A 
75 1 1 0.000000 14.142826 0.592070 -19.591324 # A 
76 1 1 0.000000 14.484809 0.177808 -20.537411 # A 
77 1 1 0.000000 14.225429 -0.126712 -21.403034 # A 
78 1 1 0.000000 14.567692 -0.697807 -22.076714 # A 
79 1 1 0.000000 14.811037 -1.037329 -21.148121 # A 
80 1 1 0.000000 15.356021 -0.432151 -20.923864 # A 
81 1 1 0.000000 15.335260 -0.014119 -21.713305 # A 
82 1 1 0.000000 16.181604 -0.482552 -21.762793 # A 
83 1 1 0.000000 15.578369 -1.153924 -21.988205 # A 
84 1 1 0.000000 16.206051 -1.463026 -22.653818 # A 
85 1 1 0.000000 15.276298 -1.657816 -22.891211 # A 
86 1 1 0.000000 15.892241 -2.429517 -23.199696 # A 
87 1 1 0.000000 16.392601 -2.497854 -24.077076 # A 
88 1 1 0.000000 16.217808 -1.535045 -23.754833 # A 
89 1 1 0.000000 17.161505 -1.696023 -24.047775 # A 
90 1 1 0.000000 17.001999 -2.163180 -23.206474 # A 
91 1 1 0.000000 17.422268 -2.873568 -23.987282 # A 
92 1 1 0.000000 18.142984 -3.561002 -23.779726 # A 
93 1 1 0.000000 18.343647 -3.937289 -22.958324 # A 
94 1 1 0.000000 18.718554 -4.470971 -22.215416 # A 
95 1 1 0.000000 18.544281 -4.658899 -21.303574 # A 
96 1 1 0.000000 18.606655 -5.376150 -20.599188 # A 
97 1 1 0.000000 18.764339 -5.762416 -21.465595 # A 
98 1 1 0.000000 18.406307 -5.547329 -22.373964 # A 
99 1 1 0.000000 18.884886 -5.953952 -23.201769 # A 
100 1 1 0.000000 19.376114 -6.630758 -23.745012 # A 
101 1 1 0.000000 19.506569 -7.293694 -24.421793 # A 
102 1 1 0.000000 20.029758 -8.130122 -24.379293 # A 
103 1 1 0.000000 20.243074 -7.600543 -23.577585 # A 
104 1 1 0.000000 20.680536 -7.265819 -22.718044 # A 
105 1 1 0.000000 21.026449 -8.139275 -22.237103 # A 
106 1 1 0.000000 20.054922 -8.161702 -22.545345 # A 
107 1 1 0.000000 20.250772 -7.605661 -21.682081 # A 
108 1 1 0.000000 19.806211 -8.167728 -21.078739 # A 
109 1 1 0.000000 19.185699 -8.348134 -20.294846 # A 
110 1 1 0.000000 19.983740 -7.596203 -20.098820 # A 
111 1 1 0.000000 20.771158 -7.711885 -20.637426 # A 
112 1 1 0.000000 21.152231 -6.912599 -20.617632 # A 
113 1 1 0.000000 21.377968 -6.221138 -21.388567 # A 
114 1 1 0.000000 21.411278 -5.501906 -22.248005 # A 
115 1 1 0.000000 21.495619 -4.992966 -23.106697 # A 
116 1 1 0.000000 21.401363 -3.959340 -23.078316 # A 
117 1 1 0.000000 21.024069 -4.380322 -23.885584 # A 
118 1 1 0.000000 20.791033 -4.842391 -24.616869 # A 
119 1 1 0.000000 21.085793 -5.747610 -24.261784 # A 
120 1 1 0.000000 21.810863 -5.167785 -24.231785 # A 
121 1 1 0.000000 22.193548 -4.329471 -23.752310 # A 
122 1 1 0.000000 21.723616 -3.569395 -24.122435 # A 
123 1 1 0.000000 21.662809 -3.015947 -24.962423 # A 
124 1 1 0.000000 21.204121 -2.372081 -25.583864 # A 
125 1 1 0.000000 20.682783 -2.588644 -24.729519 # A 
126 1 1 0.000000 20.169941 -2.338276 -25.355738 # A 
127 1 1 0.000000 19.612206 -1.456023 -25.477453 # A 
128 1 1 0.000000 19.183222 -2.343925 -24.893225 # A 
129 1 1 0.000000 18.429546 -2.702657 -24.408533 # A 
130 1 1 0.000000 18.621628 -3.449604 -25.000456 # A 
131 1 1 0.000000 18.408596 -2.693255 -25.514389 # A 
132 1 1 0.000000 19.178368 -2.468201 -25.930517 # A 
133 1 1 0.000000 19.916979 -2.665879 -26.430262 # A 
134 1 1 0.000000 19.440105 -3.478582 -25.816591 # A 
135 1 1 0.000000 19.972443 -3.761827 -26.768978 # A 
136 1 1 0.000000 19.351622 -4.391312 -26.312160 # A 
137 1 1 0.000000 19.186163 -5.341497 -26.569359 # A 
138 1 1 0.000000 18.384592 -5.946621 -26.588268 # A 
139 1 1 0.000000 17.898733 -5.731162 -25.915930 # A 
140 1 1 0.000000 18.583939 -5.218315 -25.622063 # A 
141 1 1 0.000000 18.435442 -4.579081 -24.909437 # A 
142 1 1 0.000000 17.590885 -4.039386 -24.642467 # A 
143 1 1 0.000000 17.397657 -4.666432 -25.354181 # A 
144 1 1 0.000000 17.163557 -5.005035 -24.473227 # A 
145 1 1 0.000000 17.860252 -5.512889 -24.791731 # A 
146 1 1 0.000000 16.959421 -5.694897 -25.326624 # A 
147 1 1 0.000000 16.085682 -6.086860 -25.648434 # A 
148 1 1 0.000000 15.167409 -6.271799 -26.155773 # A 
149 1 1 0.000000 14.390154 -6.706915 -25.931337 # A 
150 1 1 0.000000 14.913340 -7.269794 -26.497383 # A 
151 1 1 0.000000 14.055149 -6.931231 -26.950382 # A 
152 1 1 0.000000 14.444367 -6.302520 -26.942480 # A 
153 1 1 0.000000 14.330912 -5.924902 -27.733871 # A 
154 1 1 0.000000 13.972466 -5.300873 -27.031202 # A 
155 1 1 0.000000 13.408015 -5.983532 -27.048733 # A 
156 1 1 0.000000 13.389905 -6.407076 -26.298727 # A 
157 1 1 0.000000 12.671961 -6.162390 -25.679136 # A 
158 1 1 0.000000 13.558744 -6.431382 -25.214983 # A 
159 1 1 0.000000 12.879374 -7.034454 -24.775358 # A 
160 1 1 0.000000 12.908044 -7.251428 -25.743355 # A 
161 1 1 0.000000 12.364499 -7.422584 -26.393974 # A 
162 1 1 0.000000 12.435695 -7.682272 -27.327873 # A 
163 1 1 0.000000 13.006214 -6.950229 -27.180271 # A 
164 1 1 0.000000 13.619879 -6.842610 -27.847124 # A 
165 1 1 0.000000 13.327872 -7.302924 -28.613430 # A 
166 1 1 0.000000 12.534494 -6.925565 -28.153002 # A 
167 1 1 0.000000 12.035750 -6.316618 -28.467472 # A 
168 1 1 0.000000 11.414212 -5.692013 -28.811522 # A 
169 1 1 0.000000 11.542596 -5.138232 -29.638002 # A 
170 1 1 0.000000 11.655979 -4.208163 -29.616409 # A 
171 1 1 0.000000 11.939597 -4.577734 -30.520924 # A 
172 1 1 0.000000 12.116811 -4.452453 -31.602293 # A 
173 1 1 0.000000 12.420768 -5.042886 -32.325100 # A 
174 1 1 0.000000 12.193202 -4.248070 -32.858524 # A 
175 1 1 0.000000 13.169717 -4.206956 -32.760609 # A 
176 1 1 0.000000 13.726598 -4.288371 -32.014297 # A 
177 1 1 0.000000 13.504405 -3.666484 -31.475939 # A 
178 1 1 0.000000 14.198758 -3.190747 -31.878349 # A 
179 1 1 0.000000 13.405383 -2.610670 -31.694733 # A 
180 1 1 0.000000 13.682219 -1.955025 -30.977114 # A 
181 1 1 0.000000 14.498617 -2.346624 -31.243532 # A 
182 1 1 0.000000 13.964581 -2.976905 -30.737434 # A 
183 1 1 0.000000 14.755307 -2.801180 -30.192703 # A 
184 1 1 0.000000 15.298066 -3.524259 -30.180620 # A 
185 1 1 0.000000 16.046902 -3.002105 -29.855152 # A 
186 1 1 0.000000 16.637583 -2.299004 -29.403273 # A 
187 1 1 0.000000 17.449345 -1.684495 -29.636322 # A 
188 1 1 0.000000 17.061598 -2.192931 -30.411486 # A 
189 1 1 0.000000 17.888372 -2.124523 -30.701368 # A 
190 1 1 0.000000 18.541105 -1.666509 -30.149767 # A 
191 1 1 0.000000 18.784412 -2.586609 -30.264500 # A 
192 1 1 0.000000 19.202173 -3.043794 -30.834297 # A 
193 1 1 0.000000 18.985497 -3.718223 -31.382675 # A 
194 1 1 0.000000 18.713146 -4.408845 -32.101456 # A 
195 1 1 0.000000 17.787552 -4.558751 -32.323990 # A 
196 1 1 0.000000 17.378052 -5.127021 -32.942074 # A 
197 1 1 0.000000 17.518457 -5.342420 -33.773392 # A 
198 1 1 0.000000 16.972456 -4.423686 -33.644249 # A 
199 1 1 0.000000 17.489355 -4.436560 -34.318687 # A 
200 1 1 0.000000 18.094250 -4.219341 -34.898762 # A 
201 1 1 0.000000 18.861599 -3.777300 -34.691895 # A 
202 1 1 0.000000 18.672758 -4.368128 -33.965172 # A 
203 1 1 0.000000 19.819510 -4.118380 -34.056660 # A 
204 1 1 0.000000 20.810968 -3.655370 -33.724846 # A 
205 1 1 0.000000 21.859158 -3.561693 -33.969734 # A 
206 1 1 0.000000 22.798868 -3.387751 -34.013672 # A 
207 1 1 0.000000 23.742466 -3.125617 -34.148796 # A 
208 1 1 0.000000 24.187458 -3.783967 -33.891838 # A 
209 1 1 0.000000 25.065020 -3.444772 -33.389160 # A 
210 1 1 0.000000 24.345987 -3.321947 -32.863808 # A 
211 1 1 0.000000 24.067768 -2.374153 -32.519634 # A 
212 1 1 0.000000 23.722366 -1.824485 -33.329571 # A 
213 1 1 0.000000 24.703936 -1.547150 -33.579582 # A 
214 1 1 0.000000 24.423618 -2.502325 -33.584145 # A 
215 1 1 0.000000 24.127226 -2.076537 -34.338921 # A 
216 1 1 0.000000 23.949362 -1.236596 -34.615818 # A 
217 1 1 0.000000 23.716133 -0.491997 -35.284008 # A 
218 1 1 0.000000 22.905430 -0.951358 -34.919048 # A 
219 1 1 0.000000 23.137505 -0.386004 -34.306129 # A 
220 1 1 0.000000 22.991674 -1.204467 -33.896595 # A 
221 1 1 0.000000 23.949394 -0.821392 -33.491177 # A 
222 1 1 0.000000 24.534098 -0.109281 -33.158089 # A 
223 1 1 0.000000 24.268080 0.726924 -33.628689 # A 
224 1 1 0.000000 24.232384 -0.048630 -34.361549 # A 
225 1 1 0.000000 25.188606 -0.116201 -34.034828 # A 
226 1 1 0.000000 26.011887 -0.792831 -34.174267 # A 
227 1 1 0.000000 26.327126 0.077695 -33.709976 # A 
228 1 1 0.000000 26.438734 -0.766896 -33.124832 # A 
229 1 1 0.000000 27.150017 -0.875676 -33.806976 # A 
230 1 1 0.000000 27.315451 -0.097229 -33.210728 # A 
231 1 1 0.000000 28.083824 0.249373 -33.663536 # A 
232 1 1 0.000000 28.247826 -0.685475 -33.484428 # A 
233 1 1 0.000000 28.013651 -0.549277 -34.488098 # A 
234 1 1 0.000000 27.261057 0.120519 -34.370438 # A 
235 1 1 0.000000 27.960535 0.511626 -34.784607 # A 
236 1 1 0.000000 28.000086 1.372135 -34.870052 # A 
237 1 1 0.000000 28.889877 1.065501 -34.947021 # A 
238 1 1 0.000000 28.840893 0.099809 -35.312786 # A 
239 1 1 0.000000 28.949102 0.733194 -36.066528 # A 
240 1 1 0.000000 29.795544 0.760197 -35.486675 # A 
241 1 1 0.000000 29.410439 1.699771 -35.758209 # A 
242 1 1 0.000000 28.633629 2.103984 -35.382034 # A 
243 1 1 0.000000 28.738270 2.007145 -34.490238 # A 
244 1 1 0.000000 27.876371 2.469301 -34.584755 # A 
245 1 1 0.000000 26.984892 2.904929 -34.733631 # A 
246 1 1 0.000000 26.726839 3.334492 -35.639118 # A 
247 1 1 0.000000 25.910038 2.965021 -35.491867 # A 
248 1 1 0.000000 26.010693 2.637704 -36.336685 # A 
249 1 1 0.000000 25.455738 1.784886 -36.787319 # A 
250 1 1 0.000000 25.667641 1.397568 -37.719498 # A 
251 1 1 0.000000 26.482897 1.021486 -37.594013 # A 
252 1 1 0.000000 25.896389 0.308475 -37.393585 # A 
253 1 1 0.000000 25.919180 -0.153340 -38.068665 # A 
254 1 1 0.000000 26.564173 -0.562064 -37.584419 # A 
255 1 1 0.000000 25.837891 -0.787386 -37.111176 # A 
256 1 1 0.000000 26.133940 -1.653193 -37.443142 # A 
257 1 1 0.000000 26.319906 -2.561834 -37.056046 # A 
258 1 1 0.000000 25.431692 -3.015005 -37.271515 # A 
259 1 1 0.000000 25.282570 -2.070262 -36.928699 # A 
260 1 1 0.000000 24.584518 -2.460320 -36.322540 # A 
261 1 1 0.000000 23.762102 -2.037794 -35.687538 # A 
262 1 1 0.000000 23.254227 -2.034297 -34.994946 # A 
263 1 1 0.000000 23.014524 -2.265615 -34.131493 # A 
264 1 1 0.000000 22.656139 -2.091014 -33.284409 # A 
265 1 1 0.000000 22.462786 -3.043177 -33.030190 # A 
266 1 1 0.000000 23.416536 -2.916675 -33.136192 # A 
267 1 1 0.000000 23.344570 -3.358668 -32.321442 # A 
268 1 1 0.000000 23.522198 -3.833668 -31.409519 # A 
269 1 1 0.000000 24.517799 -3.814116 -30.984249 # A 
270 1 1 0.000000 24.189419 -2.991629 -31.586445 # A 
271 1 1 0.000000 23.890924 -2.970752 -30.654921 # A 
272 1 1 0.000000 24.481197 -2.231672 -30.659214 # A 
273 1 1 0.000000 25.122068 -2.900504 -30.971390 # A 
274 1 1 0.000000 24.830971 -3.165679 -30.108061 # A 
275 1 1 0.000000 24.846155 -4.078404 -29.665138 # A 
276 1 1 0.000000 23.965553 -3.882320 -29.991289 # A 
277 1 1 0.000000 24.064726 -4.748570 -29.707779 # A 
278 1 1 0.000000 24.196043 -5.170914 -28.873325 # A 
279 1 1 0.000000 23.261940 -5.175638 -29.021255 # A 
280 1 1 0.000000 23.466932 -5.919881 -28.407278 # A 
281 1 1 0.000000 23.849939 -6.239706 -29.122053 # A 
282 1 1 0.000000 22.996069 -6.208772 -29.349663 # A 
283 1 1 0.000000 23.388659 -5.561211 -30.038254 # A 
284 1 1 0.000000 23.157473 -5.135633 -31.133591 # A 
285 1 1 0.000000 22.890652 -4.736580 -32.117317 # A 
286 1 1 0.000000 22.338821 -5.504006 -31.876472 # A 
287 1 1 0.000000 21.847042 -5.026457 -32.603035 # A 
288 1 1 0.000000 22.310152 -4.028256 -32.660309 # A 
289 1 1 0.000000 22.648979 -4.684899 -33.366493 # A 
290 1 1 0.000000 21.718685 -5.237643 -33.732090 # A 
291 1 1 0.000000 21.554384 -4.376880 -33.349781 # A 
292 1 1 0.000000 21.284595 -4.445736 -34.302563 # A 
293 1 1 0.000000 20.920877 -3.702070 -34.790085 # A 
294 1 1 0.000000 21.242897 -2.836751 -34.499489 # A 
295 1 1 0.000000 20.746147 -2.209340 -35.029175 # A 
296 1 1 0.000000 21.609692 -1.607860 -34.901062 # A 
297 1 1 0.000000 21.946810 -0.579008 -35.123501 # A 
298 1 1 0.000000 22.688601 0.027614 -35.309723 # A 
299 1 1 0.000000 22.575546 -0.597338 -36.036148 # A 
300 1 1 0.000000 22.828415 -1.556370 -35.852428 # A 
301 1 1 0.000000 22.895243 -2.499877 -36.188503 # A 
302 1 1 0.000000 22.602291 -3.449790 -36.499405 # A 
303 1 1 0.000000 22.527119 -4.562844 -36.557304 # A 
304 1 1 0.000000 22.568892 -5.354498 -36.085598 # A 
305 1 1 0.000000 21.921446 -5.998809 -35.840084 # A 
306 1 1 0.000000 21.564667 -6.489309 -34.969387 # A 
307 1 1 0.000000 20.584473 -6.434793 -34.824528 # A 
308 1 1 0.000000 20.416227 -6.625637 -33.840759 # A 
309 1 1 0.000000 20.419712 -7.399284 -34.250679 # A 
310 1 1 0.000000 20.185614 -7.368967 -35.173397 # A 
311 1 1 0.000000 19.369606 -7.669291 -34.611191 # A 
312 1 1 0.000000 18.685654 -7.024804 -34.484756 # A 
313 1 1 0.000000 17.908974 -6.706783 -35.014282 # A 
314 1 1 0.000000 16.997038 -6.480606 -35.325382 # A 
315 1 1 0.000000 17.155523 -5.938082 -34.610802 # A 
316 1 1 0.000000 16.597956 -5.190655 -34.290997 # A 
317 1 1 0.000000 16.236160 -5.577567 -35.132687 # A 
318 1 1 0.000000 15.469967 -5.236184 -34.502178 # A 
319 1 1 0.000000 15.874990 -4.447121 -33.951122 # A 
320 1 1 0.000000 15.532772 -4.155643 -33.235695 # A 
321 1 1 0.000000 16.214096 -4.831368 -32.868866 # A 
322 1 1 0.000000 15.522388 -4.607527 -31.885643 # A 
323 1 1 0.000000 14.781262 -4.271477 -32.372902 # A 
324 1 1 0.000000 14.638932 -4.175803 -31.360277 # A 
325 1 1 0.000000 15.015650 -3.418173 -31.158752 # A 
326 1 1 0.000000 15.569591 -2.573532 -30.832794 # A 
327 1 1 0.000000 15.871843 -1.904489 -30.114956 # A 
328 1 1 0.000000 16.420809 -1.376042 -30.718739 # A 
329 1 1 0.000000 16.726526 -0.598438 -30.872299 # A 
330 1 1 0.000000 17.408007 -0.571631 -31.639975 # A 
331 1 1 0.000000 17.194031 -1.604625 -31.402166 # A 
332 1 1 0.000000 17.194887 -1.395703 -32.370029 # A 
333 1 1 0.000000 17.014257 -1.284820 -33.386669 # A 
334 1 1 0.000000 16.798740 -1.061291 -34.267136 # A 
335 1 1 0.000000 16.619598 -1.923407 -34.728199 # A 
336 1 1 0.000000 16.009022 -2.213511 -35.539818 # A 
337 1 1 0.000000 15.510119 -1.925084 -34.859444 # A 
338 1 1 0.000000 15.096743 -1.594756 -35.695843 # A 
339 1 1 0.000000 15.876541 -1.304744 -36.134937 # A 
340 1 1 0.000000 16.143276 -1.133994 -35.306877 # A 
341 1 1 0.000000 16.886751 -1.612400 -35.785267 # A 
342 1 1 0.000000 17.307016 -1.189574 -35.268024 # A 
343 1 1 0.000000 17.784168 -2.114514 -35.477898 # A 
344 1 1 0.000000 16.963963 -2.672315 -35.440960 # A 
345 1 1 0.000000 17.890350 -3.244257 -35.392582 # A 
346 1 1 0.000000 17.172739 -3.485587 -34.752075 # A 
347 1 1 0.000000 17.291203 -4.161844 -35.559147 # A 
348 1 1 0.000000 17.141476 -4.996391 -35.214157 # A 
349 1 1 0.000000 18.013678 -5.258452 -34.828899 # A 
350 1 1 0.000000 17.979256 -5.000387 -35.863220 # A 
351 1 1 0.000000 17.914274 -5.922359 -35.706490 # A 
352 1 1 0.000000 18.712132 -6.496045 -35.777439 # A 
353 1 1 0.000000 19.685692 -6.426129 -35.482391 # A 
354 1 1 0.000000 20.089790 -6.597178 -36.414074 # A 
355 1 1 0.000000 20.844976 -6.635915 -35.819836 # A 
356 1 1 0.000000 20.801502 -5.733687 -35.510811 # A 
357 1 1 0.000000 21.116344 -5.504839 -34.628517 # A 
358 1 1 0.000000 21.567028 -4.965647 -35.280472 # A 
359 1 1 0.000000 22.202036 -5.413724 -34.752682 # A 
360 1 1 0.000000 22.612167 -6.279067 -35.095474 # A 
361 1 1 0.000000 23.571453 -6.390141 -34.873333 # A 
362 1 1 0.000000 24.338356 -6.664850 -34.188831 # A 
363 1 1 0.000000 24.492517 -5.705886 -34.614960 # A 
364 1 1 0.000000 25.234234 -5.461066 -35.078629 # A 
365 1 1 0.000000 26.145945 -5.468719 -35.608246 # A 
366 1 1 0.000000 25.387676 -5.379021 -36.164127 # A 
367 1 1 0.000000 25.330156 -5.688826 -37.081669 # A 
368 1 1 0.000000 26.138136 -5.122558 -36.932571 # A 
369 1 1 0.000000 25.640451 -4.885146 -37.790535 # A 
370 1 1 0.000000 25.211926 -4.790768 -38.636845 # A 
371 1 1 0.000000 25.286873 -3.930076 -38.216042 # A 
372 1 1 0.000000 24.928955 -3.336883 -38.816547 # A 
373 1 1 0.000000 24.385614 -2.740195 -39.432461 # A 
374 1 1 0.000000 24.960957 -3.123204 -40.039574 # A 
375 1 1 0.000000 24.390804 -2.362843 -40.455120 # A 
376 1 1 0.000000 24.434937 -1.652925 -39.916889 # A 
377 1 1 0.000000 25.320927 -2.008485 -39.970726 # A 
378 1 1 0.000000 25.393568 -1.181744 -39.547329 # A 
379 1 1 0.000000 24.567621 -0.721912 -39.315834 # A 
380 1 1 0.000000 24.244165 0.076961 -38.870239 # A 
381 1 1 0.000000 24.904097 -0.484568 -38.281830 # A 
382 1 1 0.000000 24.459621 0.255463 -37.814091 # A 
383 1 1 0.000000 24.937361 -0.282562 -37.212200 # A 
384 1 1 0.000000 25.465063 0.027308 -36.464985 # A 
385 1 1 0.000000 24.996401 0.778266 -37.012077 # A 
386 1 1 0.000000 24.171211 0.458372 -36.679329 # A 
387 1 1 0.000000 23.376856 0.231588 -36.178143 # A 
388 1 1 0.000000 23.098734 1.173489 -36.651001 # A 
389 1 1 0.000000 22.653969 2.299153 -36.672016 # A 
390 1 1 0.000000 22.677841 3.190296 -37.136959 # A 
391 1 1 0.000000 22.460945 2.557378 -37.803356 # A 
392 1 1 0.000000 21.926317 2.568724 -38.510677 # A 
393 1 1 0.000000 21.120348 2.631202 -38.951519 # A 
394 1 1 0.000000 20.555880 2.864568 -39.868931 # A 
395 1 1 0.000000 20.948566 3.660033 -39.273937 # A 
396 1 1 0.000000 20.792046 3.473216 -38.249630 # A 
397 1 1 0.000000 20.790558 3.599939 -37.325287 # A 
398 1 1 0.000000 19.978718 3.287109 -37.511436 # A 
399 1 1 0.000000 19.528851 3.627511 -38.235344 # A 
400 1 1 0.000000 20.036489 4.294541 -37.862774 # A 
401 1 1 0.000000 19.722303 4.236208 -36.917854 # A 
402 1 1 0.000000 18.931919 3.957377 -37.395649 # A 
403 1 1 0.000000 18.503206 3.155670 -37.811798 # A 
404 1 1 0.000000 19.235857 2.560555 -37.756462 # A 
405 1 1 0.000000 19.090780 2.722047 -38.685917 # A 
406 1 1 0.000000 19.645491 2.187660 -39.227352 # A 
407 1 1 0.000000 19.490608 2.594103 -40.210957 # A 
408 1 1 0.000000 19.174726 2.765034 -41.061169 # A 
409 1 1 0.000000 20.063644 3.148809 -40.856449 # A 
410 1 1 0.000000 19.405319 3.926882 -41.056995 # A 
411 1 1 0.000000 19.568409 3.431160 -41.839561 # A 
412 1 1 0.000000 18.958889 3.897607 -42.190666 # A 
413 1 1 0.000000 19.673990 4.563560 -41.962128 # A 
414 1 1 0.000000 20.343853 4.046607 -42.235943 # A 
415 1 1 0.000000 19.746567 3.757792 -42.878006 # A 
416 1 1 0.000000 19.900007 3.080424 -42.781178 # A 
417 1 1 0.000000 19.226223 2.906830 -43.221859 # A 
418 1 1 0.000000 18.861332 2.121543 -42.705952 # A 
419 1 1 0.000000 18.887259 2.720654 -42.180641 # A 
420 1 1 0.000000 19.666874 2.246834 -42.003853 # A 
421 1 1 0.000000 20.433294 2.754076 -41.839897 # A 
422 1 1 0.000000 21.099871 3.299617 -41.739059 # A 
423 1 1 0.000000 21.248569 2.893480 -42.560253 # A 
424 1 1 0.000000 21.639139 1.830873 -42.713017 # A 
425 1 1 0.000000 20.700079 1.161193 -43.137211 # A 
426 1 1 0.000000 21.419331 0.721347 -43.579365 # A 
427 1 1 0.000000 21.545115 1.738491 -43.784397 # A 
428 1 1 0.000000 20.949945 2.458660 -44.394867 # A 
429 1 1 0.000000 21.389524 2.923687 -43.683441 # A 
430 1 1 0.000000 20.806273 2.333563 -43.300804 # A 
431 1 1 0.000000 20.391579 2.143519 -42.779850 # A 
432 1 1 0.000000 19.802246 1.759485 -43.031963 # A 
433 1 1 0.000000 19.921532 2.285680 -43.888657 # A 
434 1 1 0.000000 20.256308 3.166656 -43.783710 # A 
435 1 1 0.000000 20.067965 3.302212 -44.774185 # A 
436 1 1 0.000000 19.525702 3.685476 -45.822517 # A 
437 1 1 0.000000 20.381729 3.227977 -45.799793 # A 
438 1 1 0.000000 20.792818 2.475579 -46.266117 # A 
439 1 1 0.000000 21.273573 2.122873 -46.938377 # A 
440 1 1 0.000000 20.740757 2.531048 -47.564255 # A 
441 1 1 0.000000 21.277746 3.186132 -47.039810 # A 
442 1 1 0.000000 21.827084 3.554608 -47.691216 # A 
443 1 1 0.000000 22.507814 3.907395 -48.219627 # A 
444 1 1 0.000000 22.882160 3.624696 -49.150856 # A 
445 1 1 0.000000 23.611235 3.646773 -49.708706 # A 
446 1 1 0.000000 23.879446 4.212280 -49.101578 # A 
447 1 1 0.000000 23.640541 4.651206 -50.056675 # A 
448 1 1 0.000000 24.689146 4.727080 -49.750729 # A 
449 1 1 0.000000 24.802567 4.760571 -48.820110 # A 
450 1 1 0.000000 24.002825 4.917048 -48.271000 # A 
451 1 1 0.000000 24.471209 5.716154 -48.744854 # A 
452 1 1 0.000000 23.870920 5.392431 -49.287815 # A 
453 1 1 0.000000 23.337732 5.673007 -48.591343 # A 
454 1 1 0.000000 23.081684 4.791529 -48.684120 # A 
455 1 1 0.000000 22.557695 5.187095 -48.001583 # A 
456 1 1 0.000000 21.884733 4.683828 -47.807365 # A 
457 1 1 0.000000 21.111286 4.154712 -48.163513 # A 
458 1 1 0.000000 21.101057 4.299058 -47.172344 # A 
459 1 1 0.000000 21.114328 3.964884 -46.232300 # A 
460 1 1 0.000000 21.712927 4.243481 -45.668251 # A 
461 1 1 0.000000 22.247446 4.984261 -45.089020 # A 
462 1 1 0.000000 22.001253 5.540750 -44.327034 # A 
463 1 1 0.000000 22.061985 6.584248 -44.188705 # A 
464 1 1 0.000000 22.281078 6.249288 -45.066147 # A 
465 1 1 0.000000 22.070145 5.621180 -45.860928 # A 
466 1 1 0.000000 22.291212 4.906918 -46.385159 # A 
467 1 1 0.000000 22.098057 4.105225 -46.762306 # A 
468 1 1 0.000000 22.464376 3.659285 -46.197330 # A 
469 1 1 0.000000 22.923330 4.211377 -45.584862 # A 
470 1 1 0.000000 23.617525 3.389180 -45.654434 # A 
471 1 1 0.000000 22.651394 3.177047 -45.242554 # A 
472 1 1 0.000000 23.402027 3.065997 -44.603428 # A 
473 1 1 0.000000 23.427954 2.365328 -45.304470 # A 
474 1 1 0.000000 23.163055 1.562695 -45.903942 # A 
475 1 1 0.000000 22.662640 0.866740 -46.439602 # A 
476 1 1 0.000000 21.866907 1.287786 -46.696674 # A 
477 1 1 0.000000 22.126942 0.702738 -47.390491 # A 
478 1 1 0.000000 21.576117 0.894771 -48.235279 # A 
479 1 1 0.000000 21.429798 0.936849 -49.268944 # A 
480 1 1 0.000000 21.575972 1.832435 -49.736271 # A 
481 1 1 0.000000 22.049444 2.629924 -50.138607 # A 
482 1 1 0.000000 22.768686 3.284793 -50.261806 # A 
483 1 1 0.000000 23.371578 3.948141 -50.821011 # A 
484 1 1 0.000000 22.551611 3.717999 -51.325150 # A 
485 1 1 0.000000 21.589357 3.909433 -51.624432 # A 
486 1 1 0.000000 20.772385 3.829233 -52.171600 # A 
487 1 1 0.000000 19.995768 3.590524 -51.598148 # A 
488 1 1 0.000000 19.933762 4.552862 -51.860020 # A 
489 1 1 0.000000 20.695599 4.441122 -51.265087 # A 
490 1 1 0.000000 19.918268 4.287623 -50.744450 # A 
491 1 1 0.000000 19.386000 4.090314 -49.933338 # A 
492 1 1 0.000000 18.572098 3.750215 -49.582912 # A 
493 1 1 0.000000 18.187115 3.744581 -48.858059 # A 
494 1 1 0.000000 18.366873 4.323082 -48.419083 # A 
495 1 1 0.000000 19.150518 4.299500 -48.849598 # A 
496 1 1 0.000000 19.961283 4.701126 -48.512833 # A 
497 1 1 0.000000 20.125013 4.567188 -47.641254 # A 
498 1 1 0.000000 19.184933 4.428697 -47.729218 # A 
499 1 1 0.000000 19.400215 3.857137 -47.124767 # A 
500 1 1 0.000000 20.138910 4.077795 -46.704388 # A 
501 1 1 0.000000 20.197029 3.192048 -46.897461 # A 
502 1 1 0.000000 20.440149 3.552827 -47.589489 # A 
503 1 1 0.000000 19.799910 3.682541 -48.235405 # A 
504 1 1 0.000000 19.141359 3.145978 -48.755615 # A 
505 1 1 0.000000 18.739992 3.462464 -47.902416 # A 
506 1 1 0.000000 19.598232 2.817740 -47.684326 # A 
507 1 1 0.000000 18.921869 2.373791 -48.103210 # A 
508 1 1 0.000000 18.133383 2.762052 -48.499451 # A 
509 1 1 0.000000 17.886530 1.832798 -48.313839 # A 
510 1 1 0.000000 17.102356 2.306179 -48.720715 # A 
511 1 1 0.000000 17.172634 3.283678 -48.918125 # A 
512 1 1 0.000000 16.211689 3.099623 -48.706612 # A 
513 1 1 0.000000 15.441218 3.565956 -49.306221 # A 
514 1 1 0.000000 15.693616 4.293607 -48.733593 # A 
515 1 1 0.000000 15.753802 5.098310 -49.430229 # A 
516 1 1 0.000000 15.473132 5.346949 -48.681145 # A 
517 1 1 0.000000 15.649858 6.215741 -48.665371 # A 
518 1 1 0.000000 15.133093 5.975255 -49.488014 # A 
519 1 1 0.000000 14.673667 6.636372 -49.144848 # A 
520 1 1 0.000000 14.603651 6.012970 -48.461300 # A 
521 1 1 0.000000 14.530542 4.945436 -48.265484 # A 
522 1 1 0.000000 14.470672 5.127059 -49.201096 # A 
523 1 1 0.000000 14.801608 4.503314 -49.433971 # A 
524 1 1 0.000000 14.302366 3.809214 -49.341824 # A 
525 1 1 0.000000 14.902511 3.823282 -50.314148 # A 
526 1 1 0.000000 14.293297 3.870708 -51.120346 # A 
527 1 1 0.000000 14.156165 4.657731 -51.808922 # A 
528 1 1 0.000000 14.475729 5.045981 -52.679218 # A 
529 1 1 0.000000 14.269682 5.745476 -52.028526 # A 
530 1 1 0.000000 13.494998 5.557779 -52.543873 # A 
531 1 1 0.000000 13.880578 6.073083 -53.249805 # A 
532 1 1 0.000000 13.481240 5.564975 -53.797779 # A 
533 1 1 0.000000 13.627462 5.386593 -54.755451 # A 
534 1 1 0.000000 13.548438 5.965119 -55.445145 # A 
535 1 1 0.000000 14.389382 6.109766 -55.830975 # A 
536 1 1 0.000000 14.591672 5.660135 -55.195335 # A 
537 1 1 0.000000 14.908230 5.118481 -56.002773 # A 
538 1 1 0.000000 14.129654 4.676840 -55.474506 # A 
539 1 1 0.000000 13.210032 4.983504 -55.637478 # A 
540 1 1 0.000000 12.756064 4.819879 -54.514820 # A 
541 1 1 0.000000 11.968983 4.270678 -54.148964 # A 
542 1 1 0.000000 11.040093 4.480636 -54.290859 # A 
543 1 1 0.000000 11.020794 3.628167 -53.897285 # A 
544 1 1 0.000000 10.080749 4.128326 -53.936523 # A 
545 1 1 0.000000 10.151442 4.941138 -53.774586 # A 
546 1 1 0.000000 11.188444 5.469502 -53.813019 # A 
547 1 1 0.000000 11.570125 4.799726 -53.340714 # A 
548 1 1 0.000000 10.799081 4.374939 -53.104443 # A 
549 1 1 0.000000 10.218310 3.509716 -53.075619 # A 
550 1 1 0.000000 10.945916 3.500489 -52.399826 # A 
551 1 1 0.000000 10.464760 3.001092 -51.680088 # A 
552 1 1 0.000000 10.900130 3.836834 -51.379841 # A 
553 1 1 0.000000 10.936675 4.816629 -51.405876 # A 
554 1 1 0.000000 10.831715 5.599324 -52.124805 # A 
555 1 1 0.000000 10.680104 5.397797 -52.920635 # A 
556 1 1 0.000000 10.323416 5.983549 -53.520340 # A 
557 1 1 0.000000 10.641527 6.795658 -53.739059 # A 
558 1 1 0.000000 10.140944 7.419468 -53.838173 # A 
559 1 1 0.000000 9.564242 8.236846 -54.043915 # A 
560 1 1 0.000000 9.139889 7.638572 -53.380688 # A 
561 1 1 0.000000 8.720276 7.626486 -52.578083 # A 
562 1 1 0.000000 8.460563 7.414073 -51.731327 # A 
563 1 1 0.000000 8.271766 7.707284 -50.842888 # A 
564 1 1 0.000000 8.995006 8.236655 -50.967896 # A 