LAMMPS data file. CGCMM style. atom_style full generated by VMD/TopoTools v1.7 on Mon Aug 06 11:38:35 EDT 2018
 12000 atoms
 11999 bonds
 11998 angles
 0 dihedrals
 0 impropers
 1 atom types
 1 bond types
 1 angle types
 0 dihedral types
 0 improper types
 75.091823 125.180160  xlo xhi
 41.493858 91.582195  ylo yhi
 -88.006328 -37.917991  zlo zhi

# Pair Coeffs
#
# 1  A

# Bond Coeffs
#
# 1  polymer

# Angle Coeffs
#
# 1  A-A-A

 Masses

 1 1.000000 # A

 Atoms # full

1 1 1 0.000000 12.131078 -3.014050 -16.852573 # A 
2 1 1 0.000000 12.848141 -2.384962 -17.261845 # A 
3 1 1 0.000000 12.765793 -3.191999 -17.812811 # A 
4 1 1 0.000000 13.157343 -3.388698 -16.980417 # A 
5 1 1 0.000000 12.428515 -4.098895 -16.707436 # A 
6 1 1 0.000000 12.705876 -4.770516 -15.933159 # A 
7 1 1 0.000000 13.262061 -4.401596 -15.111904 # A 
8 1 1 0.000000 13.817776 -4.780052 -15.833186 # A 
9 1 1 0.000000 13.439491 -4.437131 -16.684595 # A 
10 1 1 0.000000 13.354075 -3.762831 -15.965722 # A 
11 1 1 0.000000 12.500831 -3.725477 -15.652114 # A 
12 1 1 0.000000 12.690399 -2.810771 -15.343949 # A 
13 1 1 0.000000 12.341179 -1.766122 -15.303542 # A 
14 1 1 0.000000 11.979954 -0.834049 -15.105624 # A 
15 1 1 0.000000 11.862788 0.068130 -15.350032 # A 
16 1 1 0.000000 11.205639 -0.237191 -14.662127 # A 
17 1 1 0.000000 11.387985 -0.051570 -13.720610 # A 
18 1 1 0.000000 11.894926 0.590477 -13.445823 # A 
19 1 1 0.000000 12.000234 0.898663 -12.553550 # A 
20 1 1 0.000000 12.816339 1.119334 -13.096746 # A 
21 1 1 0.000000 12.558032 1.309661 -13.990807 # A 
22 1 1 0.000000 12.412701 1.001287 -14.985788 # A 
23 1 1 0.000000 11.688475 0.708277 -14.488299 # A 
24 1 1 0.000000 11.577016 1.571163 -14.500471 # A 
25 1 1 0.000000 11.077408 1.231995 -13.699339 # A 
26 1 1 0.000000 10.598596 0.527449 -14.167577 # A 
27 1 1 0.000000 10.704746 1.019248 -14.875729 # A 
28 1 1 0.000000 10.758444 0.244965 -15.539860 # A 
29 1 1 0.000000 11.454290 0.377416 -16.294590 # A 
30 1 1 0.000000 11.500040 1.117413 -15.624697 # A 
31 1 1 0.000000 11.875010 1.844499 -15.479877 # A 
32 1 1 0.000000 11.857499 1.759184 -16.477903 # A 
33 1 1 0.000000 12.188940 2.324904 -17.262844 # A 
34 1 1 0.000000 12.821640 2.037276 -18.034779 # A 
35 1 1 0.000000 13.177734 2.790999 -17.585346 # A 
36 1 1 0.000000 14.182134 2.827940 -17.923779 # A 
37 1 1 0.000000 15.087613 2.981540 -17.745214 # A 
38 1 1 0.000000 14.957493 2.588578 -16.804092 # A 
39 1 1 0.000000 14.635817 2.748220 -15.882605 # A 
40 1 1 0.000000 14.948088 1.834316 -15.881289 # A 
41 1 1 0.000000 15.795597 1.539989 -15.279954 # A 
42 1 1 0.000000 15.640549 2.519306 -15.389141 # A 
43 1 1 0.000000 16.663033 2.287764 -15.378618 # A 
44 1 1 0.000000 16.814470 1.642495 -14.753239 # A 
45 1 1 0.000000 17.456165 1.080744 -15.269385 # A 
46 1 1 0.000000 17.309418 0.715401 -14.349207 # A 
47 1 1 0.000000 17.873108 1.545919 -14.326674 # A 
48 1 1 0.000000 17.774893 2.109153 -15.103106 # A 
49 1 1 0.000000 17.477688 2.295007 -16.032810 # A 
50 1 1 0.000000 17.595795 2.631646 -17.064884 # A 
51 1 1 0.000000 17.366819 2.707555 -17.951641 # A 
52 1 1 0.000000 16.818327 2.713654 -18.555819 # A 
53 1 1 0.000000 16.910223 2.979577 -19.437407 # A 
54 1 1 0.000000 16.877352 2.734857 -20.243353 # A 
55 1 1 0.000000 17.117142 2.248870 -20.976006 # A 
56 1 1 0.000000 16.708364 1.632717 -20.187208 # A 
57 1 1 0.000000 17.695551 1.856188 -20.121511 # A 
58 1 1 0.000000 17.937675 2.711461 -19.808624 # A 
59 1 1 0.000000 17.949751 2.603516 -18.891426 # A 
60 1 1 0.000000 17.610888 3.441287 -18.712494 # A 
61 1 1 0.000000 16.583387 3.758096 -18.755587 # A 
62 1 1 0.000000 16.035370 3.341241 -18.113810 # A 
63 1 1 0.000000 15.789574 2.933775 -19.048882 # A 
64 1 1 0.000000 16.271883 2.134925 -19.327234 # A 
65 1 1 0.000000 17.097828 1.893642 -19.225426 # A 
66 1 1 0.000000 17.854343 1.488733 -19.101677 # A 
67 1 1 0.000000 17.428263 0.874297 -19.776985 # A 
68 1 1 0.000000 16.638760 0.578208 -19.928572 # A 
69 1 1 0.000000 16.309269 0.083961 -19.313255 # A 
70 1 1 0.000000 16.066053 -0.455219 -18.553747 # A 
71 1 1 0.000000 15.927002 0.472182 -18.352575 # A 
72 1 1 0.000000 15.100406 0.008657 -18.239716 # A 
73 1 1 0.000000 14.363611 -0.605534 -18.480440 # A 
74 1 1 0.000000 14.009620 0.335789 -18.143158 # A 
75 1 1 0.000000 13.340096 0.577021 -18.813911 # A 
76 1 1 0.000000 14.228118 0.075677 -19.288534 # A 
77 1 1 0.000000 13.672474 -0.097357 -20.092688 # A 
78 1 1 0.000000 13.731276 -0.786307 -20.857498 # A 
79 1 1 0.000000 14.416529 -0.948524 -20.284889 # A 
80 1 1 0.000000 14.813523 -0.201521 -20.148834 # A 
81 1 1 0.000000 14.513021 -0.001363 -20.902781 # A 
82 1 1 0.000000 15.301143 -0.294203 -21.122992 # A 
83 1 1 0.000000 14.757285 -1.039081 -21.382322 # A 
84 1 1 0.000000 15.297956 -1.473217 -22.115038 # A 
85 1 1 0.000000 14.595101 -1.434884 -22.493677 # A 
86 1 1 0.000000 14.690503 -1.831077 -23.377842 # A 
87 1 1 0.000000 15.235085 -2.353966 -22.830938 # A 
88 1 1 0.000000 15.757966 -1.495497 -23.154612 # A 
89 1 1 0.000000 16.237858 -2.015692 -22.505249 # A 
90 1 1 0.000000 16.780893 -2.664873 -23.178698 # A 
91 1 1 0.000000 17.646456 -2.412679 -23.378365 # A 
92 1 1 0.000000 17.667475 -3.188722 -22.874277 # A 
93 1 1 0.000000 17.920280 -3.299833 -21.925083 # A 
94 1 1 0.000000 18.504904 -3.913142 -21.576162 # A 
95 1 1 0.000000 18.036274 -4.292321 -20.750011 # A 
96 1 1 0.000000 18.353642 -4.630918 -19.875443 # A 
97 1 1 0.000000 18.704275 -5.275164 -20.399061 # A 
98 1 1 0.000000 18.423515 -4.991415 -21.420891 # A 
99 1 1 0.000000 18.442196 -5.867274 -22.014954 # A 
100 1 1 0.000000 18.986952 -6.589546 -22.611670 # A 
101 1 1 0.000000 18.813389 -7.151137 -23.459194 # A 
102 1 1 0.000000 19.309603 -8.025282 -23.508743 # A 
103 1 1 0.000000 19.706644 -7.426644 -22.825764 # A 
104 1 1 0.000000 19.953674 -6.674694 -22.232683 # A 
105 1 1 0.000000 20.316050 -7.390204 -21.555105 # A 
106 1 1 0.000000 19.310667 -7.442661 -21.779182 # A 
107 1 1 0.000000 19.567991 -7.107229 -20.801500 # A 
108 1 1 0.000000 18.982529 -7.540804 -20.116447 # A 
109 1 1 0.000000 18.481472 -7.919190 -19.350607 # A 
110 1 1 0.000000 19.216501 -7.307132 -19.045574 # A 
111 1 1 0.000000 19.890232 -6.978954 -19.784088 # A 
112 1 1 0.000000 20.638657 -6.331050 -19.736166 # A 
113 1 1 0.000000 20.273808 -5.664118 -20.417107 # A 
114 1 1 0.000000 20.529541 -4.910660 -20.960957 # A 
115 1 1 0.000000 20.428362 -4.471592 -21.971748 # A 
116 1 1 0.000000 20.241068 -4.079516 -22.919052 # A 
117 1 1 0.000000 20.899441 -3.987275 -23.744570 # A 
118 1 1 0.000000 19.943233 -3.951198 -24.014517 # A 
119 1 1 0.000000 20.253950 -4.909551 -23.671913 # A 
120 1 1 0.000000 21.072615 -4.811194 -22.996046 # A 
121 1 1 0.000000 21.427843 -3.947893 -22.822575 # A 
122 1 1 0.000000 20.861738 -3.120728 -22.986183 # A 
123 1 1 0.000000 20.853128 -2.769022 -23.744072 # A 
124 1 1 0.000000 20.056396 -2.665699 -24.087370 # A 
125 1 1 0.000000 20.487165 -1.720011 -24.043993 # A 
126 1 1 0.000000 20.049021 -1.701885 -23.234205 # A 
127 1 1 0.000000 19.204483 -1.605272 -22.794901 # A 
128 1 1 0.000000 18.706802 -2.127098 -23.351257 # A 
129 1 1 0.000000 18.334740 -2.270350 -24.174967 # A 
130 1 1 0.000000 17.875837 -3.288698 -23.973267 # A 
131 1 1 0.000000 17.487734 -2.848031 -24.703165 # A 
132 1 1 0.000000 18.599119 -3.128364 -24.815664 # A 
133 1 1 0.000000 17.891788 -3.901987 -24.945601 # A 
134 1 1 0.000000 18.810141 -4.170107 -24.601625 # A 
135 1 1 0.000000 18.726870 -3.854551 -25.564215 # A 
136 1 1 0.000000 19.261839 -4.510304 -25.667509 # A 
137 1 1 0.000000 18.525108 -4.954719 -25.378201 # A 
138 1 1 0.000000 17.997076 -5.573669 -25.608147 # A 
139 1 1 0.000000 17.407621 -5.208799 -25.072329 # A 
140 1 1 0.000000 18.047522 -4.909024 -24.367586 # A 
141 1 1 0.000000 17.780396 -4.336684 -23.698734 # A 
142 1 1 0.000000 16.976990 -3.715304 -23.614370 # A 
143 1 1 0.000000 17.032598 -4.376328 -24.458309 # A 
144 1 1 0.000000 16.683979 -4.742861 -23.695883 # A 
145 1 1 0.000000 17.159691 -5.432299 -23.829096 # A 
146 1 1 0.000000 16.458126 -5.475257 -24.504822 # A 
147 1 1 0.000000 15.483445 -5.841737 -24.754892 # A 
148 1 1 0.000000 14.540466 -6.143983 -25.192970 # A 
149 1 1 0.000000 13.759039 -6.630502 -25.005524 # A 
150 1 1 0.000000 14.331509 -7.119626 -25.628960 # A 
151 1 1 0.000000 13.410668 -6.847163 -25.987684 # A 
152 1 1 0.000000 13.760061 -6.137904 -25.973907 # A 
153 1 1 0.000000 13.707080 -5.837513 -26.874022 # A 
154 1 1 0.000000 13.386227 -5.136741 -26.199196 # A 
155 1 1 0.000000 12.725532 -5.797247 -26.112528 # A 
156 1 1 0.000000 12.804303 -6.230166 -25.388107 # A 
157 1 1 0.000000 12.043873 -6.037032 -24.802038 # A 
158 1 1 0.000000 12.946116 -6.254416 -24.308865 # A 
159 1 1 0.000000 12.259446 -6.876134 -23.897480 # A 
160 1 1 0.000000 12.333958 -7.096744 -24.883667 # A 
161 1 1 0.000000 11.721410 -7.302742 -25.481020 # A 
162 1 1 0.000000 11.816187 -7.529106 -26.409433 # A 
163 1 1 0.000000 12.326463 -6.770780 -26.271833 # A 
164 1 1 0.000000 13.001906 -6.685223 -26.896488 # A 
165 1 1 0.000000 12.695240 -6.997561 -27.798113 # A 
166 1 1 0.000000 11.878043 -6.839014 -27.255072 # A 
167 1 1 0.000000 11.461240 -6.175167 -27.584290 # A 
168 1 1 0.000000 10.747691 -5.573919 -27.837574 # A 
169 1 1 0.000000 10.979520 -5.095687 -28.742222 # A 
170 1 1 0.000000 11.126881 -4.106601 -28.855721 # A 
171 1 1 0.000000 11.145995 -4.608932 -29.754435 # A 
172 1 1 0.000000 11.767118 -4.584905 -30.536600 # A 
173 1 1 0.000000 11.696174 -4.131509 -31.380026 # A 
174 1 1 0.000000 11.134710 -3.288431 -31.706198 # A 
175 1 1 0.000000 10.480586 -2.560263 -31.502939 # A 
176 1 1 0.000000 11.321599 -2.235493 -31.361897 # A 
177 1 1 0.000000 11.903366 -2.108538 -30.492573 # A 
178 1 1 0.000000 12.347317 -2.646503 -31.219425 # A 
179 1 1 0.000000 12.962412 -2.384028 -30.419708 # A 
180 1 1 0.000000 13.230233 -1.610023 -29.815174 # A 
181 1 1 0.000000 14.144699 -1.744592 -29.920551 # A 
182 1 1 0.000000 13.979324 -2.589293 -29.836943 # A 
183 1 1 0.000000 14.081428 -2.600570 -28.835337 # A 
184 1 1 0.000000 14.833989 -3.181960 -29.306349 # A 
185 1 1 0.000000 15.400406 -2.557189 -28.909443 # A 
186 1 1 0.000000 16.463089 -2.740086 -28.962442 # A 
187 1 1 0.000000 16.943174 -2.078364 -28.529881 # A 
188 1 1 0.000000 16.800863 -1.807771 -29.459276 # A 
189 1 1 0.000000 16.766027 -2.583816 -29.990812 # A 
190 1 1 0.000000 17.475126 -2.655881 -29.445070 # A 
191 1 1 0.000000 17.194929 -3.586163 -30.071371 # A 
192 1 1 0.000000 18.182194 -3.471909 -29.838692 # A 
193 1 1 0.000000 17.938768 -3.048371 -30.672377 # A 
194 1 1 0.000000 17.808523 -3.979801 -30.825035 # A 
195 1 1 0.000000 16.892614 -3.955310 -31.037783 # A 
196 1 1 0.000000 17.353142 -4.050361 -31.813354 # A 
197 1 1 0.000000 17.162741 -4.898517 -32.254005 # A 
198 1 1 0.000000 16.390299 -4.405790 -32.741734 # A 
199 1 1 0.000000 17.301514 -4.103860 -32.912647 # A 
200 1 1 0.000000 17.357044 -3.737401 -33.652130 # A 
201 1 1 0.000000 18.238291 -4.364658 -33.469887 # A 
202 1 1 0.000000 19.214905 -4.447981 -33.285858 # A 
203 1 1 0.000000 19.629189 -3.777237 -32.752598 # A 
204 1 1 0.000000 20.523058 -3.398573 -32.832684 # A 
205 1 1 0.000000 21.450825 -3.025424 -33.187115 # A 
206 1 1 0.000000 22.234713 -3.141413 -32.726006 # A 
207 1 1 0.000000 23.138842 -2.894758 -32.869576 # A 
208 1 1 0.000000 23.197157 -3.267183 -31.888763 # A 
209 1 1 0.000000 23.797611 -3.656104 -32.567165 # A 
210 1 1 0.000000 24.077621 -2.753816 -32.277821 # A 
211 1 1 0.000000 23.643282 -2.352514 -31.528910 # A 
212 1 1 0.000000 23.411957 -1.961513 -32.382362 # A 
213 1 1 0.000000 23.355888 -1.327022 -31.803101 # A 
214 1 1 0.000000 23.786461 -1.047724 -32.849216 # A 
215 1 1 0.000000 23.614265 -1.835230 -33.487926 # A 
216 1 1 0.000000 23.571413 -1.035807 -34.066856 # A 
217 1 1 0.000000 23.137917 -0.220587 -34.650459 # A 
218 1 1 0.000000 22.559523 -0.825960 -34.453690 # A 
219 1 1 0.000000 22.402674 -0.143990 -33.777664 # A 
220 1 1 0.000000 22.780443 -0.975262 -33.322327 # A 
221 1 1 0.000000 22.646935 -0.143125 -32.764511 # A 
222 1 1 0.000000 23.263006 -0.315095 -32.243683 # A 
223 1 1 0.000000 23.681299 0.310405 -32.554283 # A 
224 1 1 0.000000 23.536348 -0.145811 -33.436897 # A 
225 1 1 0.000000 24.537945 -0.091393 -33.073895 # A 
226 1 1 0.000000 25.542442 -0.364724 -33.119404 # A 
227 1 1 0.000000 25.537527 0.313298 -32.362656 # A 
228 1 1 0.000000 26.052193 -0.602098 -32.157356 # A 
229 1 1 0.000000 26.517448 -0.936017 -32.900810 # A 
230 1 1 0.000000 26.555496 0.095409 -32.910767 # A 
231 1 1 0.000000 27.562351 0.197971 -32.780502 # A 
232 1 1 0.000000 27.579384 -0.688799 -32.760117 # A 
233 1 1 0.000000 27.853889 -0.387716 -33.738274 # A 
234 1 1 0.000000 27.052708 -0.420271 -33.760357 # A 
235 1 1 0.000000 27.103577 0.387703 -33.756310 # A 
236 1 1 0.000000 27.390335 1.179277 -34.330933 # A 
237 1 1 0.000000 28.159439 0.716441 -33.899296 # A 
238 1 1 0.000000 27.917877 0.213109 -34.500401 # A 
239 1 1 0.000000 28.452175 0.339171 -35.288307 # A 
240 1 1 0.000000 29.062881 0.748296 -34.596420 # A 
241 1 1 0.000000 28.379068 1.316970 -34.837116 # A 
242 1 1 0.000000 27.921013 2.191704 -34.734810 # A 
243 1 1 0.000000 28.149569 1.881639 -33.694748 # A 
244 1 1 0.000000 27.168798 2.194378 -33.936066 # A 
245 1 1 0.000000 26.375414 2.582669 -33.682247 # A 
246 1 1 0.000000 26.539026 2.740474 -34.637047 # A 
247 1 1 0.000000 25.589195 2.466845 -34.488171 # A 
248 1 1 0.000000 25.301388 2.668154 -35.399094 # A 
249 1 1 0.000000 24.720224 1.946526 -35.002151 # A 
250 1 1 0.000000 25.381626 1.566522 -35.647015 # A 
251 1 1 0.000000 25.992138 1.013620 -36.312325 # A 
252 1 1 0.000000 25.307312 0.195095 -36.474510 # A 
253 1 1 0.000000 24.879784 -0.017466 -37.157925 # A 
254 1 1 0.000000 25.255810 -0.893667 -36.997505 # A 
255 1 1 0.000000 24.673702 -0.697380 -36.191433 # A 
256 1 1 0.000000 25.653316 -1.129965 -35.950024 # A 
257 1 1 0.000000 25.306677 -2.168567 -36.329678 # A 
258 1 1 0.000000 24.709208 -2.771928 -36.007965 # A 
259 1 1 0.000000 24.000172 -2.329760 -36.649918 # A 
260 1 1 0.000000 23.377083 -1.980757 -35.748291 # A 
261 1 1 0.000000 23.100626 -1.613640 -34.944729 # A 
262 1 1 0.000000 22.545778 -1.806517 -33.924980 # A 
263 1 1 0.000000 22.563826 -1.998956 -33.032696 # A 
264 1 1 0.000000 22.485302 -1.365065 -32.361958 # A 
265 1 1 0.000000 21.688894 -2.105925 -32.478786 # A 
266 1 1 0.000000 22.554283 -2.398931 -31.926153 # A 
267 1 1 0.000000 22.771299 -2.632787 -30.945625 # A 
268 1 1 0.000000 22.770117 -3.415150 -30.428631 # A 
269 1 1 0.000000 23.709515 -3.678933 -30.006145 # A 
270 1 1 0.000000 23.749834 -2.858193 -30.518806 # A 
271 1 1 0.000000 23.212246 -2.723230 -29.738539 # A 
272 1 1 0.000000 23.909075 -1.989229 -29.829386 # A 
273 1 1 0.000000 24.680687 -2.493132 -30.069267 # A 
274 1 1 0.000000 24.246159 -2.931839 -29.371473 # A 
275 1 1 0.000000 24.226097 -3.703710 -28.933809 # A 
276 1 1 0.000000 23.283112 -3.524474 -28.963671 # A 
277 1 1 0.000000 23.469658 -4.472077 -29.227123 # A 
278 1 1 0.000000 23.352396 -4.437665 -28.291222 # A 
279 1 1 0.000000 22.967932 -5.022908 -27.589869 # A 
280 1 1 0.000000 23.574705 -5.675504 -27.905931 # A 
281 1 1 0.000000 23.798910 -5.446435 -28.770796 # A 
282 1 1 0.000000 22.799465 -5.356513 -28.643440 # A 
283 1 1 0.000000 22.990700 -5.507349 -29.553770 # A 
284 1 1 0.000000 23.177299 -5.778650 -30.510283 # A 
285 1 1 0.000000 22.443848 -6.404543 -30.759129 # A 
286 1 1 0.000000 22.374531 -5.792997 -31.569725 # A 
287 1 1 0.000000 21.471033 -5.324790 -31.735561 # A 
288 1 1 0.000000 20.991695 -5.121654 -32.390636 # A 
289 1 1 0.000000 22.028263 -4.868854 -32.537754 # A 
290 1 1 0.000000 21.358206 -4.908868 -33.378292 # A 
291 1 1 0.000000 21.289631 -4.108853 -32.873997 # A 
292 1 1 0.000000 20.941109 -3.900274 -33.691647 # A 
293 1 1 0.000000 20.012888 -3.658007 -33.823170 # A 
294 1 1 0.000000 20.550728 -2.752632 -33.746189 # A 
295 1 1 0.000000 19.919809 -2.244720 -34.080006 # A 
296 1 1 0.000000 20.620001 -1.539040 -33.937019 # A 
297 1 1 0.000000 20.909285 -0.495497 -34.389526 # A 
298 1 1 0.000000 21.847940 -0.056178 -34.651821 # A 
299 1 1 0.000000 21.620741 -0.885797 -35.131050 # A 
300 1 1 0.000000 21.976337 -1.696506 -34.810925 # A 
301 1 1 0.000000 22.340622 -2.244018 -35.559559 # A 
302 1 1 0.000000 22.070158 -3.348915 -35.360249 # A 
303 1 1 0.000000 21.883440 -4.195942 -35.079258 # A 
304 1 1 0.000000 21.205395 -5.073524 -35.417538 # A 
305 1 1 0.000000 21.201597 -5.789486 -34.882664 # A 
306 1 1 0.000000 21.118683 -5.818199 -33.831993 # A 
307 1 1 0.000000 20.642801 -6.628109 -34.197723 # A 
308 1 1 0.000000 19.899572 -6.629004 -33.479572 # A 
309 1 1 0.000000 20.092957 -7.645078 -33.557175 # A 
310 1 1 0.000000 19.172880 -7.505550 -33.652718 # A 
311 1 1 0.000000 18.768213 -6.877662 -33.159115 # A 
312 1 1 0.000000 18.271971 -6.878921 -33.966579 # A 
313 1 1 0.000000 17.329561 -7.314116 -34.163532 # A 
314 1 1 0.000000 16.809492 -6.649923 -34.674755 # A 
315 1 1 0.000000 16.054184 -6.038103 -34.381107 # A 
316 1 1 0.000000 15.264722 -5.338219 -34.291538 # A 
317 1 1 0.000000 14.267478 -4.955431 -34.126316 # A 
318 1 1 0.000000 14.060898 -5.645948 -33.512833 # A 
319 1 1 0.000000 14.646188 -5.026429 -33.035419 # A 
320 1 1 0.000000 14.430776 -4.200643 -33.279617 # A 
321 1 1 0.000000 14.264451 -4.541125 -32.162312 # A 
322 1 1 0.000000 14.263749 -4.276412 -31.228451 # A 
323 1 1 0.000000 14.888309 -4.122176 -30.364334 # A 
324 1 1 0.000000 15.451656 -3.760167 -31.042782 # A 
325 1 1 0.000000 16.155336 -3.433715 -30.368464 # A 
326 1 1 0.000000 15.828084 -3.194564 -29.720446 # A 
327 1 1 0.000000 15.791192 -2.174181 -29.853821 # A 
328 1 1 0.000000 16.013338 -1.198588 -29.840166 # A 
329 1 1 0.000000 15.907272 -0.912567 -30.914263 # A 
330 1 1 0.000000 16.939838 -0.821672 -30.833429 # A 
331 1 1 0.000000 16.563589 -1.771080 -30.620029 # A 
332 1 1 0.000000 16.479624 -1.503275 -31.624586 # A 
333 1 1 0.000000 16.750187 -0.626908 -32.045872 # A 
334 1 1 0.000000 16.519854 -0.535204 -33.085640 # A 
335 1 1 0.000000 15.948199 -1.224281 -33.612362 # A 
336 1 1 0.000000 15.335284 -1.520518 -34.475220 # A 
337 1 1 0.000000 14.510495 -1.411727 -34.400501 # A 
338 1 1 0.000000 14.347645 -2.063667 -35.209454 # A 
339 1 1 0.000000 14.832812 -1.142247 -35.355850 # A 
340 1 1 0.000000 15.378871 -0.486630 -34.815708 # A 
341 1 1 0.000000 16.213850 -0.854116 -34.670589 # A 
342 1 1 0.000000 16.930449 -0.918594 -34.030209 # A 
343 1 1 0.000000 17.027578 -1.588277 -34.894073 # A 
344 1 1 0.000000 16.293503 -2.056140 -34.357346 # A 
345 1 1 0.000000 16.562239 -3.162514 -34.238232 # A 
346 1 1 0.000000 15.754828 -3.362983 -33.642422 # A 
347 1 1 0.000000 15.416471 -4.422362 -33.643204 # A 
348 1 1 0.000000 16.359007 -4.198954 -33.749279 # A 
349 1 1 0.000000 16.267569 -4.924683 -34.318462 # A 
350 1 1 0.000000 17.116676 -5.650330 -34.341591 # A 
351 1 1 0.000000 17.382797 -5.844462 -35.235641 # A 
352 1 1 0.000000 17.919094 -6.683340 -34.961987 # A 
353 1 1 0.000000 18.788166 -7.337572 -35.057941 # A 
354 1 1 0.000000 19.715275 -6.974772 -35.227009 # A 
355 1 1 0.000000 19.313963 -6.638265 -34.468445 # A 
356 1 1 0.000000 19.929440 -5.778796 -34.127037 # A 
357 1 1 0.000000 20.375351 -4.997537 -34.031292 # A 
358 1 1 0.000000 21.011097 -4.713661 -34.454662 # A 
359 1 1 0.000000 21.779282 -5.011896 -34.341305 # A 
360 1 1 0.000000 22.231701 -5.396613 -35.016922 # A 
361 1 1 0.000000 22.678247 -5.740662 -34.303619 # A 
362 1 1 0.000000 23.193905 -5.268168 -33.543064 # A 
363 1 1 0.000000 24.014225 -4.673140 -33.373234 # A 
364 1 1 0.000000 24.415739 -4.890190 -34.362892 # A 
365 1 1 0.000000 25.342726 -4.694851 -34.658245 # A 
366 1 1 0.000000 25.664595 -5.255338 -35.457851 # A 
367 1 1 0.000000 25.201635 -4.695666 -36.199680 # A 
368 1 1 0.000000 25.460798 -4.649859 -37.149746 # A 
369 1 1 0.000000 24.546667 -4.573871 -37.334743 # A 
370 1 1 0.000000 23.989656 -4.641958 -38.207283 # A 
371 1 1 0.000000 23.922749 -3.881375 -37.956528 # A 
372 1 1 0.000000 24.141972 -2.873372 -37.833920 # A 
373 1 1 0.000000 23.323137 -2.990762 -38.400650 # A 
374 1 1 0.000000 23.707544 -3.006629 -39.284077 # A 
375 1 1 0.000000 24.257324 -3.349504 -38.829395 # A 
376 1 1 0.000000 24.479988 -2.379577 -38.718735 # A 
377 1 1 0.000000 25.094252 -1.683415 -39.210617 # A 
378 1 1 0.000000 24.713371 -1.014077 -38.562103 # A 
379 1 1 0.000000 24.194675 -0.436256 -37.960697 # A 
380 1 1 0.000000 23.458597 0.195299 -38.026752 # A 
381 1 1 0.000000 23.819094 -0.043467 -37.001114 # A 
382 1 1 0.000000 24.288006 0.344729 -36.281330 # A 
383 1 1 0.000000 23.470381 -0.270005 -35.997726 # A 
384 1 1 0.000000 23.771605 0.390564 -35.300850 # A 
385 1 1 0.000000 23.827595 1.250335 -35.755810 # A 
386 1 1 0.000000 23.277357 0.716776 -36.409679 # A 
387 1 1 0.000000 22.684965 0.505483 -35.676952 # A 
388 1 1 0.000000 23.001122 1.049109 -34.977345 # A 
389 1 1 0.000000 22.801626 1.599478 -35.914307 # A 
390 1 1 0.000000 22.300655 2.238205 -36.745834 # A 
391 1 1 0.000000 21.968817 3.068700 -37.401691 # A 
392 1 1 0.000000 21.043015 3.224202 -37.938251 # A 
393 1 1 0.000000 21.616583 3.951595 -38.080101 # A 
394 1 1 0.000000 20.618372 4.148565 -38.412552 # A 
395 1 1 0.000000 19.545155 4.180044 -38.308094 # A 
396 1 1 0.000000 19.887608 4.787816 -37.805294 # A 
397 1 1 0.000000 20.213951 3.855670 -37.341316 # A 
398 1 1 0.000000 19.498486 3.613727 -36.582783 # A 
399 1 1 0.000000 19.141556 4.029943 -37.298691 # A 
400 1 1 0.000000 19.221039 4.705178 -36.653767 # A 
401 1 1 0.000000 18.446342 4.126035 -36.197918 # A 
402 1 1 0.000000 18.214775 4.539517 -37.098888 # A 
403 1 1 0.000000 18.204586 4.052549 -37.905083 # A 
404 1 1 0.000000 17.801332 3.040143 -37.766613 # A 
405 1 1 0.000000 18.218548 3.317971 -38.700459 # A 
406 1 1 0.000000 18.187304 2.665944 -39.422592 # A 
407 1 1 0.000000 18.750145 2.857893 -39.985382 # A 
408 1 1 0.000000 18.925058 3.779435 -40.072620 # A 
409 1 1 0.000000 18.129711 3.774691 -39.657875 # A 
410 1 1 0.000000 18.852856 4.193066 -39.116470 # A 
411 1 1 0.000000 17.973459 4.442282 -38.838398 # A 
412 1 1 0.000000 18.778645 5.039180 -38.512173 # A 
413 1 1 0.000000 18.514933 5.185932 -39.538792 # A 
414 1 1 0.000000 18.245708 4.722904 -40.149490 # A 
415 1 1 0.000000 17.996861 4.047706 -40.682213 # A 
416 1 1 0.000000 18.039915 3.932499 -41.437984 # A 
417 1 1 0.000000 18.606382 3.498721 -41.931843 # A 
418 1 1 0.000000 18.088354 2.589051 -42.309261 # A 
419 1 1 0.000000 18.790577 2.523607 -41.590935 # A 
420 1 1 0.000000 19.542160 3.116292 -41.653812 # A 
421 1 1 0.000000 19.944820 2.396757 -41.431698 # A 
422 1 1 0.000000 20.118876 3.131351 -40.737728 # A 
423 1 1 0.000000 20.640734 2.177563 -40.525997 # A 
424 1 1 0.000000 21.020914 1.430986 -41.086227 # A 
425 1 1 0.000000 20.880133 1.851416 -41.838161 # A 
426 1 1 0.000000 20.501013 1.275368 -42.417473 # A 
427 1 1 0.000000 20.740988 1.312536 -43.534302 # A 
428 1 1 0.000000 20.497843 2.180828 -43.839973 # A 
429 1 1 0.000000 20.774662 2.231906 -42.999924 # A 
430 1 1 0.000000 20.014820 2.319057 -42.534573 # A 
431 1 1 0.000000 19.702272 1.629465 -43.219814 # A 
432 1 1 0.000000 18.986689 1.883941 -42.458996 # A 
433 1 1 0.000000 19.086575 2.896623 -42.678947 # A 
434 1 1 0.000000 19.504221 2.668469 -43.663132 # A 
435 1 1 0.000000 19.420166 3.320895 -44.392479 # A 
436 1 1 0.000000 20.233660 3.970191 -44.675861 # A 
437 1 1 0.000000 20.334658 3.241969 -45.206070 # A 
438 1 1 0.000000 20.082575 2.505187 -44.902199 # A 
439 1 1 0.000000 20.684610 2.253096 -45.693264 # A 
440 1 1 0.000000 20.045271 2.458434 -46.439281 # A 
441 1 1 0.000000 20.705341 3.147784 -46.385216 # A 
442 1 1 0.000000 21.328955 3.254020 -45.725761 # A 
443 1 1 0.000000 21.752167 3.441419 -46.538109 # A 
444 1 1 0.000000 21.901587 4.432568 -46.935230 # A 
445 1 1 0.000000 22.625744 4.324247 -47.659988 # A 
446 1 1 0.000000 22.302540 4.971244 -48.048065 # A 
447 1 1 0.000000 22.802784 4.882010 -48.808022 # A 
448 1 1 0.000000 22.748055 5.829579 -48.869328 # A 
449 1 1 0.000000 23.715570 5.395242 -49.014381 # A 
450 1 1 0.000000 24.389055 5.637395 -48.253120 # A 
451 1 1 0.000000 23.605682 6.282997 -48.356464 # A 
452 1 1 0.000000 23.290266 5.442545 -47.994778 # A 
453 1 1 0.000000 22.524960 6.074020 -47.791016 # A 
454 1 1 0.000000 21.753691 5.872822 -48.279510 # A 
455 1 1 0.000000 21.716055 5.480251 -47.297577 # A 
456 1 1 0.000000 21.197830 4.727882 -47.666397 # A 
457 1 1 0.000000 20.339495 4.778913 -47.195045 # A 
458 1 1 0.000000 20.889572 4.201323 -46.664669 # A 
459 1 1 0.000000 20.581100 4.063538 -45.791603 # A 
460 1 1 0.000000 21.287924 4.015896 -44.941483 # A 
461 1 1 0.000000 21.169889 4.883501 -44.416218 # A 
462 1 1 0.000000 21.096039 5.984061 -44.113163 # A 
463 1 1 0.000000 21.209282 6.895180 -43.701172 # A 
464 1 1 0.000000 22.028412 6.536884 -43.987240 # A 
465 1 1 0.000000 22.128599 5.572149 -44.350136 # A 
466 1 1 0.000000 21.705048 5.155239 -45.331604 # A 
467 1 1 0.000000 21.696508 4.283580 -45.888359 # A 
468 1 1 0.000000 22.278000 3.514568 -45.447315 # A 
469 1 1 0.000000 22.345139 4.314279 -44.920052 # A 
470 1 1 0.000000 23.170965 3.615114 -44.850143 # A 
471 1 1 0.000000 22.177896 3.357027 -44.364536 # A 
472 1 1 0.000000 22.986607 3.017578 -43.917904 # A 
473 1 1 0.000000 22.821802 2.554618 -44.801567 # A 
474 1 1 0.000000 22.659668 1.818103 -45.332825 # A 
475 1 1 0.000000 22.227465 1.192781 -45.731590 # A 
476 1 1 0.000000 21.310160 1.424043 -46.073345 # A 
477 1 1 0.000000 21.794428 0.662327 -46.580482 # A 
478 1 1 0.000000 21.138580 1.029643 -47.251316 # A 
479 1 1 0.000000 20.898293 1.307398 -48.130974 # A 
480 1 1 0.000000 20.946859 2.081178 -48.797043 # A 
481 1 1 0.000000 21.403137 2.671735 -49.518379 # A 
482 1 1 0.000000 21.860163 2.922281 -50.255436 # A 
483 1 1 0.000000 22.163002 3.818165 -50.578392 # A 
484 1 1 0.000000 21.452654 3.386863 -51.214127 # A 
485 1 1 0.000000 20.640255 3.815492 -51.354626 # A 
486 1 1 0.000000 19.918516 4.459511 -51.516232 # A 
487 1 1 0.000000 19.601028 3.720481 -51.030682 # A 
488 1 1 0.000000 18.947990 4.588676 -50.921261 # A 
489 1 1 0.000000 19.776554 4.654900 -50.469112 # A 
490 1 1 0.000000 19.063721 5.180402 -49.959480 # A 
491 1 1 0.000000 18.363312 4.757019 -49.450619 # A 
492 1 1 0.000000 18.376249 4.424427 -48.404873 # A 
493 1 1 0.000000 17.641735 3.866431 -47.977314 # A 
494 1 1 0.000000 18.322161 4.442155 -47.307011 # A 
495 1 1 0.000000 19.304150 4.656685 -47.367786 # A 
496 1 1 0.000000 19.301163 5.335480 -46.838696 # A 
497 1 1 0.000000 19.747103 4.723138 -46.299896 # A 
498 1 1 0.000000 18.943209 4.099297 -46.455345 # A 
499 1 1 0.000000 18.655369 4.486426 -45.695244 # A 
500 1 1 0.000000 19.488567 4.023727 -45.473640 # A 
501 1 1 0.000000 19.687569 3.461674 -46.031048 # A 
502 1 1 0.000000 19.939602 3.764490 -46.795563 # A 
503 1 1 0.000000 19.888126 3.103895 -47.344078 # A 
504 1 1 0.000000 19.064512 3.614317 -47.621475 # A 
505 1 1 0.000000 18.315123 3.351802 -47.229076 # A 
506 1 1 0.000000 19.061386 2.932519 -46.677040 # A 
507 1 1 0.000000 18.196257 2.258795 -46.997284 # A 
508 1 1 0.000000 17.398624 2.854186 -47.488987 # A 
509 1 1 0.000000 17.154076 1.961257 -47.462555 # A 
510 1 1 0.000000 16.447569 2.470397 -47.822704 # A 
511 1 1 0.000000 16.513956 3.429817 -48.024414 # A 
512 1 1 0.000000 15.528811 3.052378 -47.966724 # A 
513 1 1 0.000000 14.930904 3.800730 -48.354378 # A 
514 1 1 0.000000 15.187351 4.517281 -49.040264 # A 
515 1 1 0.000000 15.085144 5.448697 -48.953377 # A 
516 1 1 0.000000 15.698606 6.297203 -49.158150 # A 
517 1 1 0.000000 15.701847 7.008698 -48.633957 # A 
518 1 1 0.000000 14.976763 6.407853 -48.203835 # A 
519 1 1 0.000000 14.022492 6.578456 -48.118118 # A 
520 1 1 0.000000 14.264799 6.115011 -47.234703 # A 
521 1 1 0.000000 13.387678 5.752925 -47.757973 # A 
522 1 1 0.000000 14.202803 5.554502 -48.232376 # A 
523 1 1 0.000000 14.227596 4.681119 -48.460514 # A 
524 1 1 0.000000 13.756100 3.916656 -48.727509 # A 
525 1 1 0.000000 14.282536 4.310454 -49.512138 # A 
526 1 1 0.000000 13.698399 3.724725 -50.162716 # A 
527 1 1 0.000000 13.857636 4.559656 -50.570534 # A 
528 1 1 0.000000 14.463488 4.905440 -51.201252 # A 
529 1 1 0.000000 14.048528 5.617743 -50.811462 # A 
530 1 1 0.000000 13.426713 5.107611 -51.466522 # A 
531 1 1 0.000000 13.764054 4.286602 -51.749451 # A 
532 1 1 0.000000 13.519035 4.857215 -52.544052 # A 
533 1 1 0.000000 13.636067 5.314130 -53.369682 # A 
534 1 1 0.000000 13.169312 5.944624 -53.948719 # A 
535 1 1 0.000000 14.092112 6.294239 -53.616379 # A 
536 1 1 0.000000 14.766463 5.504869 -53.577560 # A 
537 1 1 0.000000 14.217654 5.444908 -54.379349 # A 
538 1 1 0.000000 13.693257 4.679716 -54.330090 # A 
539 1 1 0.000000 12.790071 4.923466 -54.064121 # A 
540 1 1 0.000000 11.859156 4.845157 -54.160427 # A 
541 1 1 0.000000 11.670872 5.209450 -53.290165 # A 
542 1 1 0.000000 10.973986 4.497912 -53.549881 # A 
543 1 1 0.000000 10.563241 4.397171 -52.763901 # A 
544 1 1 0.000000 9.596534 4.318554 -53.149654 # A 
545 1 1 0.000000 10.070472 5.112544 -53.613411 # A 
546 1 1 0.000000 10.657731 5.488593 -52.946064 # A 
547 1 1 0.000000 9.771085 5.241492 -52.536430 # A 
548 1 1 0.000000 9.047272 4.630325 -51.998867 # A 
549 1 1 0.000000 8.573907 3.740798 -51.997292 # A 
550 1 1 0.000000 9.419909 3.745787 -51.383202 # A 
551 1 1 0.000000 8.647994 4.272985 -51.062443 # A 
552 1 1 0.000000 9.053561 4.024416 -50.309650 # A 
553 1 1 0.000000 9.655417 4.809272 -50.938599 # A 
554 1 1 0.000000 9.529817 5.563372 -51.527653 # A 
555 1 1 0.000000 9.684543 6.522347 -51.471214 # A 
556 1 1 0.000000 10.117859 7.219609 -51.930126 # A 
557 1 1 0.000000 10.869222 7.496912 -52.698917 # A 
558 1 1 0.000000 9.951636 7.629793 -52.887367 # A 
559 1 1 0.000000 9.008280 7.637271 -53.030109 # A 
560 1 1 0.000000 9.153381 7.883848 -52.049019 # A 
561 1 1 0.000000 8.295631 8.294461 -52.515297 # A 
562 1 1 0.000000 8.238739 7.351486 -52.275715 # A 
563 1 1 0.000000 8.665038 7.118785 -51.448803 # A 
564 1 1 0.000000 8.714411 7.750270 -50.804340 # A 