LAMMPS data file. CGCMM style. atom_style full generated by VMD/TopoTools v1.7 on Mon Aug 06 11:27:15 EDT 2018
 6000 atoms
 5999 bonds
 5998 angles
 0 dihedrals
 0 impropers
 1 atom types
 1 bond types
 1 angle types
 0 dihedral types
 0 improper types
 22.770172 62.525310  xlo xhi
 7.877691 47.632829  ylo yhi
 -54.505910 -14.750772  zlo zhi

# Pair Coeffs
#
# 1  A

# Bond Coeffs
#
# 1  polymer

# Angle Coeffs
#
# 1  A-A-A

 Masses

 1 1.000000 # A

 Atoms # full

1 1 1 0.000000 9.640342 -2.329250 -12.718596 # A 
2 1 1 0.000000 10.315618 -2.026116 -13.518993 # A 
3 1 1 0.000000 10.807184 -2.386207 -12.807863 # A 
4 1 1 0.000000 10.261626 -3.120931 -13.299095 # A 
5 1 1 0.000000 9.793633 -3.421012 -12.572704 # A 
6 1 1 0.000000 10.084732 -4.157399 -12.355576 # A 
7 1 1 0.000000 10.398329 -4.585024 -11.527128 # A 
8 1 1 0.000000 11.146615 -4.450844 -12.207321 # A 
9 1 1 0.000000 10.927987 -3.432214 -12.416126 # A 
10 1 1 0.000000 10.808553 -3.515453 -11.562630 # A 
11 1 1 0.000000 10.348535 -2.756982 -11.886380 # A 
12 1 1 0.000000 10.195459 -1.929393 -11.452221 # A 
13 1 1 0.000000 10.379601 -1.049463 -11.763636 # A 
14 1 1 0.000000 9.680659 -0.200934 -11.670652 # A 
15 1 1 0.000000 9.738572 0.774597 -11.426079 # A 
16 1 1 0.000000 9.432627 0.493455 -10.747207 # A 
17 1 1 0.000000 8.506235 0.760335 -10.333028 # A 
18 1 1 0.000000 9.285654 1.135923 -9.908072 # A 
19 1 1 0.000000 9.344760 1.945635 -9.412604 # A 
20 1 1 0.000000 10.138656 1.932414 -9.977369 # A 
21 1 1 0.000000 10.092048 1.310470 -10.613360 # A 
22 1 1 0.000000 9.868749 1.862636 -11.364058 # A 
23 1 1 0.000000 9.040406 1.516049 -10.962682 # A 
24 1 1 0.000000 9.198961 2.130518 -10.500970 # A 
25 1 1 0.000000 8.470318 1.896592 -10.074378 # A 
26 1 1 0.000000 7.969471 1.644084 -10.635077 # A 
27 1 1 0.000000 7.972364 1.656036 -11.438721 # A 
28 1 1 0.000000 8.710331 0.801484 -11.648423 # A 
29 1 1 0.000000 9.411467 1.205394 -12.417859 # A 
30 1 1 0.000000 8.967272 1.895012 -11.982981 # A 
31 1 1 0.000000 9.120071 2.438284 -12.678182 # A 
32 1 1 0.000000 9.190098 3.301991 -13.233618 # A 
33 1 1 0.000000 9.551839 3.618269 -14.124810 # A 
34 1 1 0.000000 10.197807 2.987925 -14.534976 # A 
35 1 1 0.000000 10.545142 3.901906 -14.603023 # A 
36 1 1 0.000000 11.578479 3.674211 -14.608843 # A 
37 1 1 0.000000 12.493446 3.546251 -14.247355 # A 
38 1 1 0.000000 12.377223 3.310258 -13.195016 # A 
39 1 1 0.000000 12.142440 3.743810 -12.354368 # A 
40 1 1 0.000000 12.087848 2.730364 -12.209804 # A 
41 1 1 0.000000 12.972445 2.396762 -12.000075 # A 
42 1 1 0.000000 12.990829 3.320356 -11.772997 # A 
43 1 1 0.000000 13.917304 2.906032 -11.648597 # A 
44 1 1 0.000000 14.574550 2.545107 -11.091000 # A 
45 1 1 0.000000 14.960644 1.829288 -11.602312 # A 
46 1 1 0.000000 15.070545 1.659959 -10.643287 # A 
47 1 1 0.000000 15.655957 2.396085 -10.864405 # A 
48 1 1 0.000000 15.424323 2.798649 -11.759242 # A 
49 1 1 0.000000 14.872725 2.940784 -12.677262 # A 
50 1 1 0.000000 14.473500 3.303813 -13.614374 # A 
51 1 1 0.000000 14.240710 3.596598 -14.545986 # A 
52 1 1 0.000000 13.682715 3.537055 -15.165603 # A 
53 1 1 0.000000 13.562125 3.556457 -16.125223 # A 
54 1 1 0.000000 13.650550 3.356948 -16.974068 # A 
55 1 1 0.000000 14.404140 2.669322 -17.388256 # A 
56 1 1 0.000000 14.047249 2.329718 -16.743824 # A 
57 1 1 0.000000 15.177990 2.433058 -16.584455 # A 
58 1 1 0.000000 14.624035 3.229386 -16.410725 # A 
59 1 1 0.000000 14.687546 3.255570 -15.494428 # A 
60 1 1 0.000000 14.450453 4.232978 -15.922256 # A 
61 1 1 0.000000 14.008038 4.573952 -15.211660 # A 
62 1 1 0.000000 13.148194 4.306189 -14.664102 # A 
63 1 1 0.000000 12.677455 3.933412 -15.526156 # A 
64 1 1 0.000000 12.882907 2.981812 -15.640147 # A 
65 1 1 0.000000 13.840215 2.599334 -15.727324 # A 
66 1 1 0.000000 14.544328 1.973182 -15.794232 # A 
67 1 1 0.000000 14.658681 1.479098 -16.727770 # A 
68 1 1 0.000000 13.884542 1.240795 -16.293264 # A 
69 1 1 0.000000 13.609996 0.249426 -16.511421 # A 
70 1 1 0.000000 12.954012 0.284970 -15.710534 # A 
71 1 1 0.000000 12.817638 0.461227 -14.789741 # A 
72 1 1 0.000000 11.951495 0.148693 -14.303324 # A 
73 1 1 0.000000 12.127831 -0.431967 -15.097402 # A 
74 1 1 0.000000 11.881343 0.443284 -15.355526 # A 
75 1 1 0.000000 11.233397 0.842073 -14.808194 # A 
76 1 1 0.000000 10.987570 1.437927 -15.637597 # A 
77 1 1 0.000000 10.863395 0.460398 -15.872641 # A 
78 1 1 0.000000 11.035761 -0.087722 -16.686964 # A 
79 1 1 0.000000 11.409340 -0.482529 -15.873773 # A 
80 1 1 0.000000 12.153175 -0.192925 -16.244577 # A 
81 1 1 0.000000 12.038685 0.148422 -17.108154 # A 
82 1 1 0.000000 12.916055 -0.391307 -17.102659 # A 
83 1 1 0.000000 13.866088 -0.573768 -17.205582 # A 
84 1 1 0.000000 13.435998 -1.109044 -17.933056 # A 
85 1 1 0.000000 12.542775 -0.907710 -18.196104 # A 
86 1 1 0.000000 12.868469 -1.723192 -18.667858 # A 
87 1 1 0.000000 13.261846 -1.649804 -19.553629 # A 
88 1 1 0.000000 13.355102 -0.802732 -19.005770 # A 
89 1 1 0.000000 14.171515 -1.003524 -19.441591 # A 
90 1 1 0.000000 13.994239 -1.696368 -18.739985 # A 
91 1 1 0.000000 14.812030 -1.879550 -19.379997 # A 
92 1 1 0.000000 15.583669 -2.107792 -18.971453 # A 
93 1 1 0.000000 15.723416 -2.193950 -18.124464 # A 
94 1 1 0.000000 15.588573 -3.089594 -17.535450 # A 
95 1 1 0.000000 16.255493 -3.274716 -16.935160 # A 
96 1 1 0.000000 15.951241 -4.498329 -17.201777 # A 
97 1 1 0.000000 15.674889 -5.392851 -17.756668 # A 
98 1 1 0.000000 15.478084 -4.651931 -18.371428 # A 
99 1 1 0.000000 15.582038 -5.683039 -18.741814 # A 
100 1 1 0.000000 16.133736 -6.499312 -18.751457 # A 
101 1 1 0.000000 16.200041 -7.296614 -19.182680 # A 
102 1 1 0.000000 17.091425 -7.242818 -19.352423 # A 
103 1 1 0.000000 17.138393 -6.473440 -18.978973 # A 
104 1 1 0.000000 17.972042 -6.165197 -19.138298 # A 
105 1 1 0.000000 17.948921 -7.137437 -18.495018 # A 
106 1 1 0.000000 17.161324 -6.996765 -17.999557 # A 
107 1 1 0.000000 16.362955 -6.916117 -17.677132 # A 
108 1 1 0.000000 16.227289 -7.036187 -16.421871 # A 
109 1 1 0.000000 17.170422 -6.829651 -16.032383 # A 
110 1 1 0.000000 17.208313 -6.876068 -14.897107 # A 
111 1 1 0.000000 17.814053 -6.255330 -15.408511 # A 
112 1 1 0.000000 18.410812 -5.748610 -15.998141 # A 
113 1 1 0.000000 19.103508 -5.251638 -16.596426 # A 
114 1 1 0.000000 18.098803 -5.117248 -16.954739 # A 
115 1 1 0.000000 18.225384 -4.466917 -17.826763 # A 
116 1 1 0.000000 18.026321 -3.985932 -18.796585 # A 
117 1 1 0.000000 18.018967 -3.037227 -19.521408 # A 
118 1 1 0.000000 17.856993 -3.901690 -19.864916 # A 
119 1 1 0.000000 18.258169 -4.769086 -19.413919 # A 
120 1 1 0.000000 18.756506 -4.413918 -20.238607 # A 
121 1 1 0.000000 18.892490 -3.728518 -19.540707 # A 
122 1 1 0.000000 18.658205 -3.304059 -20.427114 # A 
123 1 1 0.000000 18.355648 -2.482006 -20.362572 # A 
124 1 1 0.000000 17.895538 -1.944564 -20.898264 # A 
125 1 1 0.000000 17.365786 -1.991562 -20.069582 # A 
126 1 1 0.000000 17.275660 -1.130604 -20.150969 # A 
127 1 1 0.000000 16.490711 -1.259094 -20.540682 # A 
128 1 1 0.000000 16.401411 -1.594032 -19.657110 # A 
129 1 1 0.000000 15.707183 -1.986109 -20.037291 # A 
130 1 1 0.000000 15.604788 -2.809799 -20.517649 # A 
131 1 1 0.000000 15.800503 -1.927134 -21.116562 # A 
132 1 1 0.000000 16.041117 -1.692201 -22.102278 # A 
133 1 1 0.000000 16.781502 -2.324416 -22.224300 # A 
134 1 1 0.000000 16.883663 -1.920271 -21.321732 # A 
135 1 1 0.000000 16.624548 -2.460986 -20.621473 # A 
136 1 1 0.000000 16.250736 -2.889151 -21.389633 # A 
137 1 1 0.000000 15.987425 -3.787339 -21.675440 # A 
138 1 1 0.000000 15.823287 -4.893707 -21.983849 # A 
139 1 1 0.000000 15.018479 -5.183205 -21.499205 # A 
140 1 1 0.000000 15.429820 -4.516924 -20.998892 # A 
141 1 1 0.000000 15.348146 -3.891643 -20.288105 # A 
142 1 1 0.000000 14.653069 -3.285942 -20.285997 # A 
143 1 1 0.000000 14.462024 -4.051836 -20.966444 # A 
144 1 1 0.000000 14.124111 -4.443418 -20.123207 # A 
145 1 1 0.000000 14.777704 -5.003500 -20.395090 # A 
146 1 1 0.000000 13.937862 -5.086869 -21.045235 # A 
147 1 1 0.000000 12.921357 -5.319644 -21.336477 # A 
148 1 1 0.000000 12.146996 -5.661756 -21.987753 # A 
149 1 1 0.000000 11.337227 -5.560654 -21.377714 # A 
150 1 1 0.000000 11.107623 -6.512311 -21.820248 # A 
151 1 1 0.000000 11.147523 -5.885150 -22.441084 # A 
152 1 1 0.000000 11.842307 -5.787620 -23.001125 # A 
153 1 1 0.000000 11.891713 -5.027866 -23.404524 # A 
154 1 1 0.000000 11.117702 -4.914083 -22.884001 # A 
155 1 1 0.000000 10.271464 -5.244328 -22.615585 # A 
156 1 1 0.000000 10.270145 -5.782105 -21.793146 # A 
157 1 1 0.000000 9.619036 -5.459439 -21.138071 # A 
158 1 1 0.000000 10.444111 -5.890442 -20.669373 # A 
159 1 1 0.000000 9.713508 -6.352280 -20.232458 # A 
160 1 1 0.000000 9.720512 -6.586111 -21.249350 # A 
161 1 1 0.000000 9.455654 -6.625293 -22.025459 # A 
162 1 1 0.000000 9.460535 -6.818081 -22.927504 # A 
163 1 1 0.000000 10.251945 -6.443871 -22.766226 # A 
164 1 1 0.000000 10.862756 -5.829695 -23.441242 # A 
165 1 1 0.000000 10.897581 -6.548733 -24.069822 # A 
166 1 1 0.000000 9.965449 -6.278610 -23.804193 # A 
167 1 1 0.000000 9.030766 -5.753726 -23.930969 # A 
168 1 1 0.000000 8.405441 -5.026731 -24.491304 # A 
169 1 1 0.000000 8.321148 -4.470373 -25.372511 # A 
170 1 1 0.000000 8.255507 -3.578180 -25.832874 # A 
171 1 1 0.000000 8.689264 -4.182381 -26.512775 # A 
172 1 1 0.000000 8.629230 -3.340047 -26.942774 # A 
173 1 1 0.000000 8.883700 -3.796638 -27.793629 # A 
174 1 1 0.000000 9.206486 -3.032983 -28.419350 # A 
175 1 1 0.000000 10.192479 -2.889028 -28.547052 # A 
176 1 1 0.000000 10.343275 -3.611434 -27.886015 # A 
177 1 1 0.000000 10.629843 -3.113039 -27.118578 # A 
178 1 1 0.000000 10.451812 -2.338517 -27.639133 # A 
179 1 1 0.000000 10.466521 -1.664553 -28.187996 # A 
180 1 1 0.000000 10.078399 -1.399045 -27.225271 # A 
181 1 1 0.000000 10.583771 -2.115921 -26.550592 # A 
182 1 1 0.000000 11.201911 -2.885730 -26.174891 # A 
183 1 1 0.000000 12.006154 -3.269017 -25.576035 # A 
184 1 1 0.000000 12.682120 -3.241164 -24.993738 # A 
185 1 1 0.000000 13.127288 -2.614041 -25.454086 # A 
186 1 1 0.000000 13.770671 -1.976912 -25.484476 # A 
187 1 1 0.000000 14.507703 -1.444035 -25.522491 # A 
188 1 1 0.000000 14.398026 -1.565541 -26.481806 # A 
189 1 1 0.000000 14.557094 -2.384415 -26.159414 # A 
190 1 1 0.000000 15.387076 -1.922079 -25.977089 # A 
191 1 1 0.000000 16.206198 -2.322993 -25.598087 # A 
192 1 1 0.000000 16.173182 -2.606873 -26.319361 # A 
193 1 1 0.000000 15.377233 -2.578806 -26.874067 # A 
194 1 1 0.000000 15.565936 -3.479659 -26.653639 # A 
195 1 1 0.000000 14.717637 -3.424306 -26.532955 # A 
196 1 1 0.000000 14.387894 -3.736830 -27.344767 # A 
197 1 1 0.000000 15.089553 -3.267126 -27.734383 # A 
198 1 1 0.000000 15.067643 -3.616014 -28.809311 # A 
199 1 1 0.000000 14.413966 -4.049146 -29.640457 # A 
200 1 1 0.000000 15.132641 -3.391868 -29.939569 # A 
201 1 1 0.000000 16.160789 -3.608591 -30.215656 # A 
202 1 1 0.000000 16.032339 -2.956061 -29.434467 # A 
203 1 1 0.000000 16.991156 -3.324812 -29.559561 # A 
204 1 1 0.000000 17.970425 -3.222005 -29.175705 # A 
205 1 1 0.000000 18.865938 -2.933408 -29.302633 # A 
206 1 1 0.000000 19.683891 -2.609777 -29.493166 # A 
207 1 1 0.000000 20.602995 -2.167141 -29.425129 # A 
208 1 1 0.000000 20.805521 -2.853181 -29.239571 # A 
209 1 1 0.000000 21.652218 -2.784035 -28.839388 # A 
210 1 1 0.000000 21.262302 -2.357722 -28.240019 # A 
211 1 1 0.000000 20.800034 -1.766307 -28.504417 # A 
212 1 1 0.000000 20.588198 -0.821836 -28.738716 # A 
213 1 1 0.000000 21.466892 -0.812386 -28.433361 # A 
214 1 1 0.000000 21.618952 -0.511945 -29.180521 # A 
215 1 1 0.000000 21.216455 -1.322754 -29.547558 # A 
216 1 1 0.000000 20.968225 -0.647143 -30.016241 # A 
217 1 1 0.000000 20.607986 -0.166342 -30.803993 # A 
218 1 1 0.000000 19.999910 -0.626987 -30.377451 # A 
219 1 1 0.000000 19.848845 0.335003 -30.161850 # A 
220 1 1 0.000000 20.209673 -0.081597 -29.436182 # A 
221 1 1 0.000000 20.250229 0.755094 -29.089622 # A 
222 1 1 0.000000 21.011019 0.249764 -28.711340 # A 
223 1 1 0.000000 21.333374 1.064665 -29.035667 # A 
224 1 1 0.000000 21.081629 0.416348 -29.880421 # A 
225 1 1 0.000000 22.064278 0.390200 -29.596071 # A 
226 1 1 0.000000 23.101656 0.264265 -29.661417 # A 
227 1 1 0.000000 22.933485 0.793044 -28.875177 # A 
228 1 1 0.000000 23.312544 -0.092859 -28.553268 # A 
229 1 1 0.000000 23.842762 -0.427047 -29.294519 # A 
230 1 1 0.000000 24.057501 0.562537 -29.048466 # A 
231 1 1 0.000000 24.940615 0.738655 -29.406971 # A 
232 1 1 0.000000 24.908592 -0.217600 -29.347490 # A 
233 1 1 0.000000 25.214304 0.057650 -30.241028 # A 
234 1 1 0.000000 24.227470 0.189338 -30.088161 # A 
235 1 1 0.000000 24.565235 1.043179 -30.322227 # A 
236 1 1 0.000000 24.801723 1.743730 -31.071072 # A 
237 1 1 0.000000 25.410929 1.799592 -30.373831 # A 
238 1 1 0.000000 25.641108 0.992870 -30.886501 # A 
239 1 1 0.000000 25.781691 1.184453 -31.796129 # A 
240 1 1 0.000000 26.593027 1.482980 -31.123270 # A 
241 1 1 0.000000 25.926970 2.094074 -31.260942 # A 
242 1 1 0.000000 25.245613 2.707258 -31.255569 # A 
243 1 1 0.000000 25.772614 2.869050 -30.541880 # A 
244 1 1 0.000000 24.766260 2.676128 -30.200647 # A 
245 1 1 0.000000 23.964411 3.145669 -30.216208 # A 
246 1 1 0.000000 24.274803 3.158210 -31.089279 # A 
247 1 1 0.000000 23.270052 3.190171 -31.100286 # A 
248 1 1 0.000000 22.662703 3.372995 -31.871824 # A 
249 1 1 0.000000 22.498692 2.456273 -31.465353 # A 
250 1 1 0.000000 22.841602 1.803069 -32.098640 # A 
251 1 1 0.000000 23.476347 1.611364 -32.841976 # A 
252 1 1 0.000000 23.227495 0.729268 -32.965057 # A 
253 1 1 0.000000 22.649319 0.787766 -33.654369 # A 
254 1 1 0.000000 22.628500 -0.221941 -33.505421 # A 
255 1 1 0.000000 22.610344 -0.027374 -32.419945 # A 
256 1 1 0.000000 22.990913 -0.837693 -32.665356 # A 
257 1 1 0.000000 23.098667 -1.820020 -32.559772 # A 
258 1 1 0.000000 22.249958 -2.389985 -32.791080 # A 
259 1 1 0.000000 22.069246 -1.399144 -32.498112 # A 
260 1 1 0.000000 21.487774 -1.994937 -32.007431 # A 
261 1 1 0.000000 20.934135 -1.550844 -31.202196 # A 
262 1 1 0.000000 20.514624 -1.610436 -30.374537 # A 
263 1 1 0.000000 20.121950 -1.269517 -29.551672 # A 
264 1 1 0.000000 19.691961 -1.753764 -28.863358 # A 
265 1 1 0.000000 19.400951 -2.565653 -28.352755 # A 
266 1 1 0.000000 20.139732 -2.735394 -28.373579 # A 
267 1 1 0.000000 20.076712 -2.836398 -27.513798 # A 
268 1 1 0.000000 20.470200 -3.166050 -26.601492 # A 
269 1 1 0.000000 21.474724 -3.131873 -26.453901 # A 
270 1 1 0.000000 21.098255 -2.508987 -27.146749 # A 
271 1 1 0.000000 20.840143 -2.226244 -26.285969 # A 
272 1 1 0.000000 21.360800 -1.485570 -26.072289 # A 
273 1 1 0.000000 21.952290 -2.155039 -26.481224 # A 
274 1 1 0.000000 21.666891 -2.472685 -25.594118 # A 
275 1 1 0.000000 21.634747 -3.346983 -25.158062 # A 
276 1 1 0.000000 20.715506 -3.011970 -25.565393 # A 
277 1 1 0.000000 20.859880 -3.821973 -25.847404 # A 
278 1 1 0.000000 20.738628 -3.863861 -24.811640 # A 
279 1 1 0.000000 20.587015 -4.441879 -24.075939 # A 
280 1 1 0.000000 21.017311 -5.284023 -24.336864 # A 
281 1 1 0.000000 21.250299 -4.750992 -25.187229 # A 
282 1 1 0.000000 20.305237 -4.751942 -25.105745 # A 
283 1 1 0.000000 20.397966 -4.791320 -26.068424 # A 
284 1 1 0.000000 20.225451 -4.163317 -26.886520 # A 
285 1 1 0.000000 19.833609 -3.993005 -27.816366 # A 
286 1 1 0.000000 19.524174 -4.845051 -27.331167 # A 
287 1 1 0.000000 18.775896 -4.383534 -27.832539 # A 
288 1 1 0.000000 18.955376 -3.468391 -28.311148 # A 
289 1 1 0.000000 19.670731 -3.560852 -28.887629 # A 
290 1 1 0.000000 18.779129 -4.063763 -29.262009 # A 
291 1 1 0.000000 17.816528 -4.033340 -29.874432 # A 
292 1 1 0.000000 18.481651 -3.524865 -30.170336 # A 
293 1 1 0.000000 17.501444 -3.111084 -30.513830 # A 
294 1 1 0.000000 17.588650 -2.366263 -29.770634 # A 
295 1 1 0.000000 17.442600 -2.002784 -30.592014 # A 
296 1 1 0.000000 17.815340 -1.082733 -30.587973 # A 
297 1 1 0.000000 18.592672 -0.236964 -30.803877 # A 
298 1 1 0.000000 19.246857 0.627650 -31.017868 # A 
299 1 1 0.000000 19.557020 -0.144103 -31.294249 # A 
300 1 1 0.000000 19.975588 -1.098302 -31.330051 # A 
301 1 1 0.000000 19.975811 -1.941119 -31.766140 # A 
302 1 1 0.000000 19.707458 -2.889740 -31.979204 # A 
303 1 1 0.000000 19.437513 -3.895491 -31.737017 # A 
304 1 1 0.000000 19.569944 -4.771563 -31.776386 # A 
305 1 1 0.000000 18.717497 -5.249860 -31.350389 # A 
306 1 1 0.000000 18.582979 -5.730949 -30.653801 # A 
307 1 1 0.000000 17.694622 -6.054788 -30.577436 # A 
308 1 1 0.000000 17.150747 -6.015174 -29.784952 # A 
309 1 1 0.000000 17.313000 -6.979486 -30.124962 # A 
310 1 1 0.000000 16.718000 -6.473564 -30.697655 # A 
311 1 1 0.000000 15.719917 -6.192829 -30.776426 # A 
312 1 1 0.000000 14.917352 -6.648731 -30.415771 # A 
313 1 1 0.000000 14.695295 -5.732489 -30.453892 # A 
314 1 1 0.000000 14.416266 -6.105641 -31.228960 # A 
315 1 1 0.000000 13.736299 -5.397796 -30.832384 # A 
316 1 1 0.000000 13.732900 -4.854447 -30.028465 # A 
317 1 1 0.000000 12.958773 -4.547716 -30.628063 # A 
318 1 1 0.000000 12.045420 -4.345031 -29.872395 # A 
319 1 1 0.000000 12.303059 -3.769053 -28.960726 # A 
320 1 1 0.000000 12.050668 -3.036403 -28.624159 # A 
321 1 1 0.000000 11.190247 -3.474148 -28.509420 # A 
322 1 1 0.000000 11.743415 -3.731119 -27.806046 # A 
323 1 1 0.000000 12.225039 -3.017541 -27.466532 # A 
324 1 1 0.000000 11.428949 -2.705620 -27.767496 # A 
325 1 1 0.000000 11.572505 -2.197027 -26.966455 # A 
326 1 1 0.000000 12.308770 -2.619827 -26.421959 # A 
327 1 1 0.000000 12.781692 -1.779686 -26.124817 # A 
328 1 1 0.000000 13.508137 -1.034971 -26.198286 # A 
329 1 1 0.000000 13.325554 -0.003943 -26.513758 # A 
330 1 1 0.000000 14.054507 0.123840 -27.109594 # A 
331 1 1 0.000000 13.696730 -0.728889 -27.306799 # A 
332 1 1 0.000000 13.766345 -1.008958 -28.204023 # A 
333 1 1 0.000000 13.843028 0.024246 -28.216837 # A 
334 1 1 0.000000 13.129874 -0.336389 -28.932913 # A 
335 1 1 0.000000 12.654829 -1.071239 -29.458502 # A 
336 1 1 0.000000 13.083574 -1.809500 -30.086512 # A 
337 1 1 0.000000 12.546618 -1.281228 -30.743900 # A 
338 1 1 0.000000 12.796406 -1.511350 -31.434105 # A 
339 1 1 0.000000 12.580232 -1.017749 -32.031239 # A 
340 1 1 0.000000 12.720279 -0.382772 -31.368044 # A 
341 1 1 0.000000 13.575413 -0.661842 -31.369780 # A 
342 1 1 0.000000 13.354064 -0.269411 -32.264076 # A 
343 1 1 0.000000 14.100905 -0.669523 -32.688828 # A 
344 1 1 0.000000 13.870789 -1.355699 -32.150810 # A 
345 1 1 0.000000 13.814414 -1.998370 -31.460438 # A 
346 1 1 0.000000 13.675406 -2.716372 -30.841419 # A 
347 1 1 0.000000 14.302053 -3.511511 -30.639030 # A 
348 1 1 0.000000 13.916781 -4.289325 -31.053371 # A 
349 1 1 0.000000 14.535352 -4.998808 -31.412766 # A 
350 1 1 0.000000 14.695007 -4.675764 -30.534691 # A 
351 1 1 0.000000 15.516882 -5.009758 -30.838543 # A 
352 1 1 0.000000 15.448537 -5.470128 -31.683233 # A 
353 1 1 0.000000 16.437191 -5.618027 -31.373714 # A 
354 1 1 0.000000 16.829969 -5.655630 -32.139080 # A 
355 1 1 0.000000 17.621950 -5.592526 -31.509430 # A 
356 1 1 0.000000 17.802130 -4.900712 -30.777308 # A 
357 1 1 0.000000 18.518240 -4.729013 -30.181120 # A 
358 1 1 0.000000 18.716143 -4.292135 -30.932205 # A 
359 1 1 0.000000 19.515917 -4.942821 -30.660534 # A 
360 1 1 0.000000 19.612026 -5.908062 -30.441809 # A 
361 1 1 0.000000 20.575272 -5.933489 -30.485497 # A 
362 1 1 0.000000 21.238728 -5.942562 -29.611147 # A 
363 1 1 0.000000 21.337185 -5.087824 -30.201448 # A 
364 1 1 0.000000 22.123030 -4.802256 -30.599966 # A 
365 1 1 0.000000 23.036764 -4.775271 -31.116753 # A 
366 1 1 0.000000 22.280640 -4.682599 -31.686169 # A 
367 1 1 0.000000 22.211678 -4.981707 -32.608860 # A 
368 1 1 0.000000 23.020163 -4.419587 -32.466030 # A 
369 1 1 0.000000 22.504606 -4.165577 -33.304363 # A 
370 1 1 0.000000 22.088472 -4.061297 -34.173191 # A 
371 1 1 0.000000 22.135841 -3.192922 -33.756962 # A 
372 1 1 0.000000 21.823591 -2.751327 -34.723881 # A 
373 1 1 0.000000 21.280727 -2.092319 -35.268219 # A 
374 1 1 0.000000 21.746084 -2.751012 -35.854259 # A 
375 1 1 0.000000 21.430069 -1.913491 -36.407139 # A 
376 1 1 0.000000 21.287205 -1.142312 -35.899078 # A 
377 1 1 0.000000 22.131859 -1.619969 -35.602100 # A 
378 1 1 0.000000 21.998480 -0.587962 -35.145897 # A 
379 1 1 0.000000 21.959475 0.188404 -34.207214 # A 
380 1 1 0.000000 20.987104 0.552942 -34.186287 # A 
381 1 1 0.000000 20.779749 0.750843 -33.222874 # A 
382 1 1 0.000000 21.611320 1.110230 -33.546841 # A 
383 1 1 0.000000 21.752356 0.204975 -33.104351 # A 
384 1 1 0.000000 22.183590 0.975787 -32.667130 # A 
385 1 1 0.000000 21.310383 0.746221 -32.277901 # A 
386 1 1 0.000000 21.156824 1.631313 -32.620853 # A 
387 1 1 0.000000 20.249733 1.073604 -32.355358 # A 
388 1 1 0.000000 20.683395 1.498114 -31.603024 # A 
389 1 1 0.000000 20.196033 2.201487 -32.362213 # A 
390 1 1 0.000000 19.634249 2.908541 -32.960732 # A 
391 1 1 0.000000 19.597519 3.648049 -33.675751 # A 
392 1 1 0.000000 18.705805 3.556043 -33.336426 # A 
393 1 1 0.000000 18.265802 3.820091 -34.277122 # A 
394 1 1 0.000000 17.418455 3.821444 -34.895447 # A 
395 1 1 0.000000 17.455538 4.569814 -34.434864 # A 
396 1 1 0.000000 17.612194 5.065190 -33.635639 # A 
397 1 1 0.000000 17.687683 4.075095 -33.442429 # A 
398 1 1 0.000000 16.786646 4.365770 -33.533566 # A 
399 1 1 0.000000 16.619667 5.193328 -34.154243 # A 
400 1 1 0.000000 16.538002 5.468849 -33.373192 # A 
401 1 1 0.000000 15.815513 5.113401 -32.977287 # A 
402 1 1 0.000000 15.693897 4.665459 -33.755970 # A 
403 1 1 0.000000 16.025955 4.278100 -34.316814 # A 
404 1 1 0.000000 15.189908 3.871983 -34.433056 # A 
405 1 1 0.000000 15.813108 3.209386 -34.671352 # A 
406 1 1 0.000000 16.051174 2.846626 -35.536148 # A 
407 1 1 0.000000 15.862586 3.441588 -36.168716 # A 
408 1 1 0.000000 16.898232 3.548400 -35.920109 # A 
409 1 1 0.000000 16.429684 4.320982 -36.168003 # A 
410 1 1 0.000000 16.105299 4.035419 -35.336483 # A 
411 1 1 0.000000 15.396801 4.498370 -35.312000 # A 
412 1 1 0.000000 15.247560 4.362648 -36.060577 # A 
413 1 1 0.000000 15.625338 4.212500 -36.877739 # A 
414 1 1 0.000000 16.361118 4.476495 -37.234554 # A 
415 1 1 0.000000 16.858274 3.964645 -37.867805 # A 
416 1 1 0.000000 16.255726 3.566935 -38.368237 # A 
417 1 1 0.000000 15.549526 2.955625 -38.609814 # A 
418 1 1 0.000000 14.948738 2.582799 -37.796562 # A 
419 1 1 0.000000 15.771483 2.565182 -37.563915 # A 
420 1 1 0.000000 15.949714 3.319514 -37.316128 # A 
421 1 1 0.000000 16.541458 3.402089 -36.961514 # A 
422 1 1 0.000000 17.297546 3.983130 -36.945385 # A 
423 1 1 0.000000 17.585516 2.993508 -36.803509 # A 
424 1 1 0.000000 18.033506 2.971518 -37.784725 # A 
425 1 1 0.000000 17.842283 2.376509 -38.632122 # A 
426 1 1 0.000000 18.163467 1.641311 -38.929485 # A 
427 1 1 0.000000 18.556604 2.351959 -39.478817 # A 
428 1 1 0.000000 18.790771 3.218923 -39.976646 # A 
429 1 1 0.000000 17.846010 3.183064 -39.347542 # A 
430 1 1 0.000000 17.315960 3.314724 -38.534824 # A 
431 1 1 0.000000 16.873230 2.869250 -37.813469 # A 
432 1 1 0.000000 16.577032 2.424720 -38.449680 # A 
433 1 1 0.000000 16.586349 2.953754 -39.269054 # A 
434 1 1 0.000000 16.809755 3.916959 -39.336746 # A 
435 1 1 0.000000 16.742785 4.045854 -40.500668 # A 
436 1 1 0.000000 16.504517 4.399885 -41.504993 # A 
437 1 1 0.000000 17.364956 3.861684 -41.465973 # A 
438 1 1 0.000000 17.584463 3.016882 -41.884510 # A 
439 1 1 0.000000 18.362656 2.910780 -42.427067 # A 
440 1 1 0.000000 17.714590 3.201859 -42.963135 # A 
441 1 1 0.000000 18.090946 3.973129 -42.285027 # A 
442 1 1 0.000000 18.520338 4.101768 -43.078011 # A 
443 1 1 0.000000 19.444845 4.476368 -43.521679 # A 
444 1 1 0.000000 20.023926 4.247449 -44.431702 # A 
445 1 1 0.000000 20.735044 4.274582 -45.276814 # A 
446 1 1 0.000000 20.831575 5.006079 -44.663273 # A 
447 1 1 0.000000 20.724939 5.297653 -45.667759 # A 
448 1 1 0.000000 21.636097 5.423005 -45.379158 # A 
449 1 1 0.000000 22.069809 6.281124 -45.297791 # A 
450 1 1 0.000000 21.566589 6.843100 -44.752590 # A 
451 1 1 0.000000 20.694393 6.996322 -44.228592 # A 
452 1 1 0.000000 19.884245 7.505203 -44.245777 # A 
453 1 1 0.000000 20.141310 6.850845 -45.122044 # A 
454 1 1 0.000000 19.763422 6.301464 -44.254025 # A 
455 1 1 0.000000 19.379417 5.629137 -43.374374 # A 
456 1 1 0.000000 18.541603 5.881708 -43.936337 # A 
457 1 1 0.000000 18.127596 5.258674 -43.267296 # A 
458 1 1 0.000000 18.708908 5.072571 -42.528385 # A 
459 1 1 0.000000 18.652094 4.813732 -41.715912 # A 
460 1 1 0.000000 18.885794 5.127903 -40.789310 # A 
461 1 1 0.000000 19.459579 5.898031 -40.327160 # A 
462 1 1 0.000000 18.493326 6.028987 -40.289684 # A 
463 1 1 0.000000 18.673555 7.020086 -40.147308 # A 
464 1 1 0.000000 19.114723 6.580199 -41.049583 # A 
465 1 1 0.000000 18.943287 5.888573 -41.688446 # A 
466 1 1 0.000000 19.597708 5.818517 -42.357834 # A 
467 1 1 0.000000 19.736444 4.876191 -42.148247 # A 
468 1 1 0.000000 19.770588 5.284192 -41.300552 # A 
469 1 1 0.000000 19.965502 4.955803 -40.496689 # A 
470 1 1 0.000000 20.380337 4.346380 -41.284485 # A 
471 1 1 0.000000 19.443975 4.224945 -41.227554 # A 
472 1 1 0.000000 19.807861 3.875580 -40.415428 # A 
473 1 1 0.000000 19.512766 3.148908 -40.891163 # A 
474 1 1 0.000000 19.688587 2.264461 -41.346397 # A 
475 1 1 0.000000 18.773762 2.562150 -41.433472 # A 
476 1 1 0.000000 18.894993 1.882885 -42.203072 # A 
477 1 1 0.000000 19.025724 1.137905 -42.896481 # A 
478 1 1 0.000000 18.590416 1.325281 -43.809158 # A 
479 1 1 0.000000 18.195780 1.547196 -44.726524 # A 
480 1 1 0.000000 18.482599 2.282589 -45.381088 # A 
481 1 1 0.000000 18.748432 2.886137 -46.133869 # A 
482 1 1 0.000000 19.390486 3.657940 -46.461567 # A 
483 1 1 0.000000 19.518721 2.770472 -46.996273 # A 
484 1 1 0.000000 18.702272 3.405579 -47.200089 # A 
485 1 1 0.000000 18.164982 3.444478 -47.967175 # A 
486 1 1 0.000000 18.202360 4.364437 -47.407223 # A 
487 1 1 0.000000 17.286489 4.191935 -47.227913 # A 
488 1 1 0.000000 17.328468 5.035160 -47.669231 # A 
489 1 1 0.000000 17.807894 5.127531 -46.841423 # A 
490 1 1 0.000000 16.886530 4.957561 -46.448853 # A 
491 1 1 0.000000 16.289854 4.779066 -45.497074 # A 
492 1 1 0.000000 15.426307 4.478856 -45.148216 # A 
493 1 1 0.000000 15.071117 4.457026 -44.325474 # A 
494 1 1 0.000000 15.267575 5.056983 -44.022205 # A 
495 1 1 0.000000 16.092449 4.930879 -44.392315 # A 
496 1 1 0.000000 16.884413 5.386349 -44.024361 # A 
497 1 1 0.000000 17.067858 5.231290 -43.149731 # A 
498 1 1 0.000000 16.071108 5.145240 -43.293056 # A 
499 1 1 0.000000 16.366014 4.612968 -42.581196 # A 
500 1 1 0.000000 17.295519 4.686573 -42.222309 # A 
501 1 1 0.000000 16.860392 3.687099 -42.398525 # A 
502 1 1 0.000000 17.338236 4.160564 -43.167187 # A 
503 1 1 0.000000 16.694546 4.355578 -43.722126 # A 
504 1 1 0.000000 16.003380 3.804549 -44.287216 # A 
505 1 1 0.000000 15.723611 4.138880 -43.364300 # A 
506 1 1 0.000000 16.592779 3.347631 -43.384457 # A 
507 1 1 0.000000 15.776665 3.067298 -43.584877 # A 
508 1 1 0.000000 15.028522 3.442323 -44.047523 # A 
509 1 1 0.000000 14.785814 2.566375 -43.811054 # A 
510 1 1 0.000000 14.008294 3.004944 -44.221909 # A 
511 1 1 0.000000 14.074784 3.958267 -44.393574 # A 
512 1 1 0.000000 13.096642 3.821911 -44.254047 # A 
513 1 1 0.000000 12.295927 4.227106 -44.845997 # A 
514 1 1 0.000000 12.574476 4.970225 -44.264194 # A 
515 1 1 0.000000 12.635690 5.794922 -44.913044 # A 
516 1 1 0.000000 12.362557 6.030355 -44.179756 # A 
517 1 1 0.000000 12.526044 6.942802 -44.179329 # A 
518 1 1 0.000000 11.995746 6.657514 -44.982964 # A 
519 1 1 0.000000 11.533410 7.347291 -44.675190 # A 
520 1 1 0.000000 11.496456 6.711165 -43.975689 # A 
521 1 1 0.000000 11.425960 5.684858 -43.725460 # A 
522 1 1 0.000000 11.348711 5.806806 -44.664200 # A 
523 1 1 0.000000 11.692284 5.191591 -44.977417 # A 
524 1 1 0.000000 11.162034 4.525725 -44.870441 # A 
525 1 1 0.000000 11.817375 4.433004 -45.801701 # A 
526 1 1 0.000000 11.163917 4.451677 -46.553955 # A 
527 1 1 0.000000 11.175050 5.187025 -47.249546 # A 
528 1 1 0.000000 11.601504 5.575781 -48.060127 # A 
529 1 1 0.000000 11.177618 6.243453 -47.548092 # A 
530 1 1 0.000000 10.501963 5.788015 -48.101700 # A 
531 1 1 0.000000 10.182524 5.769512 -49.068607 # A 
532 1 1 0.000000 10.570430 5.738781 -50.046299 # A 
533 1 1 0.000000 10.469153 6.588222 -50.627075 # A 
534 1 1 0.000000 11.132672 7.056754 -51.230026 # A 
535 1 1 0.000000 11.003322 6.281644 -51.810913 # A 
536 1 1 0.000000 11.400637 6.088394 -50.957024 # A 
537 1 1 0.000000 11.312594 5.280575 -51.580486 # A 
538 1 1 0.000000 10.905946 4.993774 -50.715996 # A 
539 1 1 0.000000 10.368601 5.667940 -51.242245 # A 
540 1 1 0.000000 9.710835 5.302982 -50.662601 # A 
541 1 1 0.000000 9.278169 5.497783 -49.725544 # A 
542 1 1 0.000000 8.999192 5.536723 -48.701885 # A 
543 1 1 0.000000 8.450296 6.124739 -49.161797 # A 
544 1 1 0.000000 7.604286 6.242707 -49.090954 # A 
545 1 1 0.000000 8.104897 5.404982 -49.966465 # A 
546 1 1 0.000000 7.428363 5.270869 -49.445950 # A 
547 1 1 0.000000 7.964103 5.177421 -48.872406 # A 
548 1 1 0.000000 6.896066 5.618426 -48.533146 # A 
549 1 1 0.000000 7.058911 4.562077 -48.684277 # A 
550 1 1 0.000000 7.635402 4.779068 -47.943722 # A 
551 1 1 0.000000 6.611086 4.851158 -47.719124 # A 
552 1 1 0.000000 7.192752 4.677397 -46.963291 # A 
553 1 1 0.000000 7.200847 5.750939 -47.356350 # A 
554 1 1 0.000000 7.924756 5.935533 -48.082424 # A 
555 1 1 0.000000 7.779538 6.813539 -48.099785 # A 
556 1 1 0.000000 8.408518 7.593877 -48.317196 # A 
557 1 1 0.000000 8.114390 7.213101 -49.187717 # A 
558 1 1 0.000000 7.315045 7.683068 -48.572624 # A 
559 1 1 0.000000 6.521740 8.258722 -49.118279 # A 
560 1 1 0.000000 6.622036 8.397469 -48.150799 # A 
561 1 1 0.000000 5.803106 8.917400 -48.623920 # A 
562 1 1 0.000000 5.654996 7.924705 -48.387035 # A 
563 1 1 0.000000 6.008365 7.720021 -47.442112 # A 
564 1 1 0.000000 5.509620 8.248983 -46.713959 # A 
565 1 1 0.000000 5.560144 8.689647 -47.611416 # A 