LAMMPS data file. CGCMM style. atom_style full generated by VMD/TopoTools v1.7 on Sun Aug 05 16:20:34 EDT 2018
 5000 atoms
 4999 bonds
 4998 angles
 0 dihedrals
 0 impropers
 1 atom types
 1 bond types
 1 angle types
 0 dihedral types
 0 improper types
 11.142296 48.553314  xlo xhi
 -2.894717 34.516301  ylo yhi
 -54.428900 -17.017882  zlo zhi

# Pair Coeffs
#
# 1  A

# Bond Coeffs
#
# 1  polymer

# Angle Coeffs
#
# 1  A-A-A

 Masses

 1 1.000000 # A

 Atoms # full

1 1 1 0.000000 8.865174 -2.171357 -13.235336 # A 
2 1 1 0.000000 9.523598 -1.903502 -12.588909 # A 
3 1 1 0.000000 9.996184 -2.317191 -13.270287 # A 
4 1 1 0.000000 9.505900 -3.059583 -12.925610 # A 
5 1 1 0.000000 9.433957 -3.687302 -12.248872 # A 
6 1 1 0.000000 9.830853 -4.465796 -11.699294 # A 
7 1 1 0.000000 9.894225 -3.521355 -11.297079 # A 
8 1 1 0.000000 10.725836 -3.933862 -11.299739 # A 
9 1 1 0.000000 10.539415 -3.774120 -12.243517 # A 
10 1 1 0.000000 10.565780 -2.900576 -11.901093 # A 
11 1 1 0.000000 9.606628 -2.657021 -11.852242 # A 
12 1 1 0.000000 10.182762 -1.898006 -11.583755 # A 
13 1 1 0.000000 9.762488 -1.283581 -10.972875 # A 
14 1 1 0.000000 9.214524 -0.463241 -10.473883 # A 
15 1 1 0.000000 9.146349 0.493795 -10.812531 # A 
16 1 1 0.000000 8.629211 0.334228 -10.000723 # A 
17 1 1 0.000000 9.248859 1.134579 -9.963225 # A 
18 1 1 0.000000 8.542071 1.331337 -9.385159 # A 
19 1 1 0.000000 8.803202 1.782803 -8.672494 # A 
20 1 1 0.000000 9.634829 1.688724 -9.098620 # A 
21 1 1 0.000000 9.149503 2.229821 -9.753692 # A 
22 1 1 0.000000 8.989838 1.863152 -10.701862 # A 
23 1 1 0.000000 8.317993 2.546419 -10.732087 # A 
24 1 1 0.000000 8.032145 2.281183 -9.852472 # A 
25 1 1 0.000000 7.690508 2.059279 -9.149663 # A 
26 1 1 0.000000 7.442115 1.262507 -9.677656 # A 
27 1 1 0.000000 7.535803 1.686030 -10.757314 # A 
28 1 1 0.000000 8.241457 1.192632 -10.482145 # A 
29 1 1 0.000000 8.287691 1.152992 -11.299855 # A 
30 1 1 0.000000 8.429042 1.973117 -11.642579 # A 
31 1 1 0.000000 9.079608 2.736526 -11.422851 # A 
32 1 1 0.000000 9.117517 2.610121 -12.346735 # A 
33 1 1 0.000000 9.174178 3.487932 -12.860559 # A 
34 1 1 0.000000 9.832274 2.846820 -13.322441 # A 
35 1 1 0.000000 10.176027 3.667140 -13.117018 # A 
36 1 1 0.000000 11.136187 4.099334 -13.606746 # A 
37 1 1 0.000000 12.046375 3.903685 -13.360182 # A 
38 1 1 0.000000 11.786017 3.529064 -12.509688 # A 
39 1 1 0.000000 11.844638 3.643218 -11.494349 # A 
40 1 1 0.000000 12.104508 2.689252 -11.738667 # A 
41 1 1 0.000000 12.867740 2.138461 -11.119199 # A 
42 1 1 0.000000 12.800134 3.187033 -11.021056 # A 
43 1 1 0.000000 13.711944 2.878086 -10.911174 # A 
44 1 1 0.000000 14.236125 2.572335 -10.017814 # A 
45 1 1 0.000000 13.884145 1.815389 -10.555259 # A 
46 1 1 0.000000 14.534133 1.492678 -9.892492 # A 
47 1 1 0.000000 15.197161 2.104566 -10.271473 # A 
48 1 1 0.000000 14.716675 2.423115 -11.090599 # A 
49 1 1 0.000000 14.695066 3.278576 -11.677169 # A 
50 1 1 0.000000 14.549400 3.549955 -12.717618 # A 
51 1 1 0.000000 14.185816 3.657621 -13.633443 # A 
52 1 1 0.000000 13.827896 3.254165 -14.489532 # A 
53 1 1 0.000000 13.907590 3.630358 -15.262602 # A 
54 1 1 0.000000 13.934437 3.283366 -16.027639 # A 
55 1 1 0.000000 14.618035 2.765383 -16.362104 # A 
56 1 1 0.000000 13.921379 2.190606 -16.128832 # A 
57 1 1 0.000000 14.394307 2.608610 -15.207214 # A 
58 1 1 0.000000 14.925513 3.373241 -15.578925 # A 
59 1 1 0.000000 14.862371 3.578795 -14.685926 # A 
60 1 1 0.000000 14.312306 4.399530 -14.577643 # A 
61 1 1 0.000000 13.426425 4.379769 -14.605359 # A 
62 1 1 0.000000 13.144426 3.821055 -13.860828 # A 
63 1 1 0.000000 12.355291 4.202093 -14.399812 # A 
64 1 1 0.000000 12.858846 3.480661 -14.956173 # A 
65 1 1 0.000000 13.318014 2.696340 -15.349919 # A 
66 1 1 0.000000 13.574818 1.785526 -15.127921 # A 
67 1 1 0.000000 14.420383 1.442254 -15.520046 # A 
68 1 1 0.000000 13.549183 1.120995 -16.050116 # A 
69 1 1 0.000000 13.090145 0.672760 -15.413998 # A 
70 1 1 0.000000 12.400981 0.466829 -14.868491 # A 
71 1 1 0.000000 12.462995 1.115812 -14.245736 # A 
72 1 1 0.000000 11.885244 0.369693 -13.855239 # A 
73 1 1 0.000000 11.272974 0.076191 -14.635617 # A 
74 1 1 0.000000 11.444142 1.011704 -14.613353 # A 
75 1 1 0.000000 10.502606 1.302719 -14.355353 # A 
76 1 1 0.000000 10.520442 0.743014 -15.200585 # A 
77 1 1 0.000000 10.834558 1.023149 -16.064686 # A 
78 1 1 0.000000 10.441222 0.185615 -16.243082 # A 
79 1 1 0.000000 11.283335 -0.432770 -15.999829 # A 
80 1 1 0.000000 11.565362 0.456444 -15.643521 # A 
81 1 1 0.000000 11.513653 0.423501 -16.628988 # A 
82 1 1 0.000000 12.319249 0.666512 -16.364882 # A 
83 1 1 0.000000 12.216545 -0.400714 -16.531563 # A 
84 1 1 0.000000 11.834558 -0.464310 -17.371477 # A 
85 1 1 0.000000 12.217563 -1.283746 -17.757923 # A 
86 1 1 0.000000 11.818127 -0.737339 -18.453621 # A 
87 1 1 0.000000 12.025450 -1.476851 -18.848291 # A 
88 1 1 0.000000 12.958191 -1.544859 -18.485178 # A 
89 1 1 0.000000 13.640848 -1.000349 -18.836802 # A 
90 1 1 0.000000 13.825268 -0.995646 -18.028198 # A 
91 1 1 0.000000 14.146598 -1.952857 -18.001932 # A 
92 1 1 0.000000 14.583633 -2.720056 -18.545906 # A 
93 1 1 0.000000 14.605875 -2.881077 -17.602982 # A 
94 1 1 0.000000 14.926572 -3.630743 -16.967392 # A 
95 1 1 0.000000 14.868795 -3.801968 -15.980708 # A 
96 1 1 0.000000 14.931674 -4.571160 -15.313291 # A 
97 1 1 0.000000 15.065193 -4.899080 -16.210175 # A 
98 1 1 0.000000 14.839191 -4.769217 -17.199621 # A 
99 1 1 0.000000 15.315976 -5.338460 -17.984623 # A 
100 1 1 0.000000 15.574653 -5.751809 -18.897371 # A 
101 1 1 0.000000 16.324335 -6.472095 -18.922237 # A 
102 1 1 0.000000 16.812428 -6.766104 -19.597813 # A 
103 1 1 0.000000 17.489731 -7.025126 -18.608793 # A 
104 1 1 0.000000 17.636499 -6.192270 -18.244797 # A 
105 1 1 0.000000 17.655399 -6.866716 -17.426361 # A 
106 1 1 0.000000 16.716059 -6.895320 -17.706486 # A 
107 1 1 0.000000 16.635948 -7.083995 -16.759714 # A 
108 1 1 0.000000 16.147226 -7.169186 -15.888585 # A 
109 1 1 0.000000 15.426041 -7.495812 -15.263381 # A 
110 1 1 0.000000 16.019264 -6.775361 -14.823103 # A 
111 1 1 0.000000 16.826284 -6.539878 -15.338802 # A 
112 1 1 0.000000 17.590178 -5.967461 -15.281625 # A 
113 1 1 0.000000 17.704863 -5.467897 -16.204172 # A 
114 1 1 0.000000 17.734812 -4.948965 -17.082344 # A 
115 1 1 0.000000 17.800966 -4.317776 -17.843884 # A 
116 1 1 0.000000 17.819910 -3.293805 -17.824173 # A 
117 1 1 0.000000 17.442047 -3.759254 -18.694515 # A 
118 1 1 0.000000 17.302633 -4.427384 -19.299383 # A 
119 1 1 0.000000 17.483667 -5.341887 -18.914024 # A 
120 1 1 0.000000 18.303984 -4.696017 -18.889780 # A 
121 1 1 0.000000 18.507418 -3.652050 -18.626673 # A 
122 1 1 0.000000 18.030560 -2.804986 -18.832268 # A 
123 1 1 0.000000 17.929323 -2.237135 -19.656767 # A 
124 1 1 0.000000 17.578432 -1.628895 -20.308294 # A 
125 1 1 0.000000 16.892487 -1.871640 -19.502565 # A 
126 1 1 0.000000 16.541403 -1.345324 -20.148640 # A 
127 1 1 0.000000 15.862237 -0.929737 -19.938284 # A 
128 1 1 0.000000 15.493371 -1.564668 -19.506001 # A 
129 1 1 0.000000 14.428698 -1.778832 -19.115406 # A 
130 1 1 0.000000 14.950510 -2.542559 -19.575144 # A 
131 1 1 0.000000 14.574944 -1.929005 -20.254581 # A 
132 1 1 0.000000 15.217035 -1.525127 -20.833717 # A 
133 1 1 0.000000 16.115520 -1.646386 -21.049114 # A 
134 1 1 0.000000 15.874653 -2.211148 -20.193419 # A 
135 1 1 0.000000 16.382290 -2.692317 -20.992826 # A 
136 1 1 0.000000 15.908803 -3.475021 -21.088573 # A 
137 1 1 0.000000 15.463367 -4.439787 -21.064676 # A 
138 1 1 0.000000 14.404138 -4.314026 -20.738962 # A 
139 1 1 0.000000 14.564716 -5.305127 -20.831881 # A 
140 1 1 0.000000 15.163752 -4.810393 -20.073740 # A 
141 1 1 0.000000 14.814885 -3.914893 -19.855545 # A 
142 1 1 0.000000 14.142432 -3.321644 -19.384216 # A 
143 1 1 0.000000 13.718323 -3.859952 -20.123262 # A 
144 1 1 0.000000 13.483602 -4.284663 -19.305199 # A 
145 1 1 0.000000 14.108283 -4.853962 -19.734638 # A 
146 1 1 0.000000 13.281053 -4.922546 -20.247692 # A 
147 1 1 0.000000 12.386056 -5.226240 -20.748577 # A 
148 1 1 0.000000 11.500862 -5.327213 -20.418642 # A 
149 1 1 0.000000 10.604281 -5.345580 -20.611183 # A 
150 1 1 0.000000 10.691504 -6.259717 -20.937416 # A 
151 1 1 0.000000 10.676299 -5.620018 -21.679817 # A 
152 1 1 0.000000 11.567034 -5.673708 -21.501705 # A 
153 1 1 0.000000 11.144459 -4.720801 -21.296041 # A 
154 1 1 0.000000 10.506650 -4.532893 -22.068529 # A 
155 1 1 0.000000 9.706852 -5.191012 -21.982321 # A 
156 1 1 0.000000 9.697937 -5.809697 -21.082079 # A 
157 1 1 0.000000 9.193729 -5.556133 -20.207857 # A 
158 1 1 0.000000 9.937634 -6.010110 -19.875635 # A 
159 1 1 0.000000 9.317295 -6.763960 -19.548391 # A 
160 1 1 0.000000 9.201496 -6.614759 -20.537741 # A 
161 1 1 0.000000 8.701632 -6.722654 -21.416771 # A 
162 1 1 0.000000 8.246427 -7.282197 -22.186144 # A 
163 1 1 0.000000 9.243125 -7.194497 -22.263895 # A 
164 1 1 0.000000 9.141011 -6.217509 -22.431641 # A 
165 1 1 0.000000 9.343203 -6.918917 -23.300037 # A 
166 1 1 0.000000 8.514636 -6.824639 -23.137560 # A 
167 1 1 0.000000 7.805482 -6.389979 -22.961351 # A 
168 1 1 0.000000 7.417103 -5.672195 -23.633171 # A 
169 1 1 0.000000 7.903315 -5.764796 -24.507795 # A 
170 1 1 0.000000 8.180129 -5.008248 -25.056612 # A 
171 1 1 0.000000 8.315338 -5.410584 -26.059534 # A 
172 1 1 0.000000 8.658562 -4.515962 -26.376699 # A 
173 1 1 0.000000 7.999267 -3.977033 -26.931215 # A 
174 1 1 0.000000 8.747276 -3.761921 -27.335075 # A 
175 1 1 0.000000 9.143510 -2.871975 -27.221775 # A 
176 1 1 0.000000 9.664127 -3.654017 -26.721863 # A 
177 1 1 0.000000 9.859703 -2.827174 -26.299265 # A 
178 1 1 0.000000 9.929538 -1.983945 -26.140509 # A 
179 1 1 0.000000 10.126964 -1.404574 -26.877096 # A 
180 1 1 0.000000 10.202896 -0.947813 -26.079844 # A 
181 1 1 0.000000 11.034243 -1.606992 -25.877296 # A 
182 1 1 0.000000 10.878880 -2.575800 -25.737879 # A 
183 1 1 0.000000 10.989751 -2.098067 -24.871349 # A 
184 1 1 0.000000 11.854796 -2.160994 -25.142790 # A 
185 1 1 0.000000 11.958043 -1.776091 -24.249998 # A 
186 1 1 0.000000 13.024147 -1.587655 -24.451368 # A 
187 1 1 0.000000 13.941064 -1.266212 -24.559637 # A 
188 1 1 0.000000 13.348375 -1.244645 -25.430302 # A 
189 1 1 0.000000 13.497190 -2.162426 -25.248169 # A 
190 1 1 0.000000 14.469869 -1.777150 -25.371050 # A 
191 1 1 0.000000 15.280142 -1.603801 -24.893320 # A 
192 1 1 0.000000 15.383821 -2.321426 -25.659851 # A 
193 1 1 0.000000 15.129507 -2.503276 -26.467199 # A 
194 1 1 0.000000 14.266589 -2.671738 -25.952183 # A 
195 1 1 0.000000 13.898815 -3.355463 -26.767097 # A 
196 1 1 0.000000 13.229906 -3.852929 -27.566401 # A 
197 1 1 0.000000 13.207607 -4.485241 -28.462322 # A 
198 1 1 0.000000 13.806227 -3.755338 -28.476994 # A 
199 1 1 0.000000 13.754864 -3.266435 -29.108774 # A 
200 1 1 0.000000 14.236154 -3.164134 -29.694191 # A 
201 1 1 0.000000 15.163073 -3.433100 -29.753939 # A 
202 1 1 0.000000 14.885386 -3.184789 -28.832222 # A 
203 1 1 0.000000 15.973578 -2.901083 -28.952997 # A 
204 1 1 0.000000 17.099777 -2.777192 -28.532936 # A 
205 1 1 0.000000 18.184177 -2.597998 -28.807953 # A 
206 1 1 0.000000 19.084297 -2.213915 -28.867832 # A 
207 1 1 0.000000 20.116255 -2.239454 -28.803457 # A 
208 1 1 0.000000 20.394474 -3.009192 -28.357756 # A 
209 1 1 0.000000 21.354057 -2.560250 -28.049963 # A 
210 1 1 0.000000 20.708441 -2.413090 -27.506197 # A 
211 1 1 0.000000 20.253086 -1.565366 -27.417021 # A 
212 1 1 0.000000 19.931059 -0.669073 -27.634483 # A 
213 1 1 0.000000 20.893469 -0.667990 -27.560514 # A 
214 1 1 0.000000 20.787682 -0.608314 -28.464558 # A 
215 1 1 0.000000 20.155622 -1.172117 -28.547194 # A 
216 1 1 0.000000 20.427635 -0.714988 -29.409178 # A 
217 1 1 0.000000 19.989542 -0.026977 -30.085354 # A 
218 1 1 0.000000 19.367191 -0.414001 -29.653618 # A 
219 1 1 0.000000 19.371387 0.417217 -29.226873 # A 
220 1 1 0.000000 19.770290 -0.219076 -28.641020 # A 
221 1 1 0.000000 19.693779 0.624802 -28.264416 # A 
222 1 1 0.000000 20.436108 0.271919 -27.941570 # A 
223 1 1 0.000000 20.693525 1.103512 -28.332680 # A 
224 1 1 0.000000 20.513994 0.385944 -29.149265 # A 
225 1 1 0.000000 21.411802 0.273959 -28.571114 # A 
226 1 1 0.000000 22.487013 0.320006 -28.811655 # A 
227 1 1 0.000000 22.556818 0.978129 -28.068518 # A 
228 1 1 0.000000 22.918028 0.115781 -27.774183 # A 
229 1 1 0.000000 23.410212 -0.212400 -28.507629 # A 
230 1 1 0.000000 23.676649 0.798690 -28.235672 # A 
231 1 1 0.000000 24.688580 1.017966 -28.484276 # A 
232 1 1 0.000000 24.484392 0.072205 -28.350552 # A 
233 1 1 0.000000 24.662495 0.243486 -29.325779 # A 
234 1 1 0.000000 23.721962 0.428100 -29.287060 # A 
235 1 1 0.000000 24.101557 1.258833 -29.468525 # A 
236 1 1 0.000000 24.407280 1.920915 -30.032717 # A 
237 1 1 0.000000 24.972862 1.935312 -29.338394 # A 
238 1 1 0.000000 25.229343 1.141304 -29.857841 # A 
239 1 1 0.000000 25.256971 1.198981 -30.741091 # A 
240 1 1 0.000000 26.124542 1.616241 -30.270472 # A 
241 1 1 0.000000 25.434475 2.209546 -30.306503 # A 
242 1 1 0.000000 25.017704 3.019829 -30.082914 # A 
243 1 1 0.000000 25.455791 2.969167 -29.163996 # A 
244 1 1 0.000000 24.378796 2.808608 -29.235205 # A 
245 1 1 0.000000 23.448381 3.178414 -29.334240 # A 
246 1 1 0.000000 23.898882 3.252837 -30.187880 # A 
247 1 1 0.000000 22.792997 3.276171 -30.249422 # A 
248 1 1 0.000000 22.181957 3.519924 -30.997890 # A 
249 1 1 0.000000 21.976818 2.600624 -30.635874 # A 
250 1 1 0.000000 22.271732 1.955717 -31.285669 # A 
251 1 1 0.000000 22.870806 1.755474 -32.045219 # A 
252 1 1 0.000000 22.687958 0.855864 -32.098614 # A 
253 1 1 0.000000 22.087275 0.929269 -32.819939 # A 
254 1 1 0.000000 22.088472 -0.060691 -32.676533 # A 
255 1 1 0.000000 22.042538 0.106294 -31.616098 # A 
256 1 1 0.000000 22.425402 -0.674004 -31.834419 # A 
257 1 1 0.000000 22.581827 -1.657354 -31.715427 # A 
258 1 1 0.000000 21.726439 -2.210902 -31.864002 # A 
259 1 1 0.000000 21.514200 -1.254604 -31.643404 # A 
260 1 1 0.000000 20.914423 -1.751162 -31.008938 # A 
261 1 1 0.000000 20.346870 -1.320236 -30.257273 # A 
262 1 1 0.000000 19.733356 -1.559170 -29.511621 # A 
263 1 1 0.000000 19.125025 -1.105081 -28.854561 # A 
264 1 1 0.000000 19.131784 -1.422785 -27.940594 # A 
265 1 1 0.000000 18.788551 -2.399832 -27.850058 # A 
266 1 1 0.000000 19.701204 -2.352561 -27.821442 # A 
267 1 1 0.000000 19.566139 -2.828388 -26.986853 # A 
268 1 1 0.000000 19.824789 -3.077057 -25.996248 # A 
269 1 1 0.000000 20.859440 -3.061483 -25.770733 # A 
270 1 1 0.000000 20.562588 -2.339951 -26.412094 # A 
271 1 1 0.000000 20.283068 -2.160999 -25.502220 # A 
272 1 1 0.000000 20.776760 -1.403972 -25.338497 # A 
273 1 1 0.000000 21.386494 -2.059087 -25.771936 # A 
274 1 1 0.000000 21.213963 -2.359836 -24.962721 # A 
275 1 1 0.000000 21.358082 -2.831055 -24.135180 # A 
276 1 1 0.000000 20.334717 -2.880785 -24.587301 # A 
277 1 1 0.000000 20.826712 -3.546683 -24.786589 # A 
278 1 1 0.000000 20.138021 -4.100545 -24.212952 # A 
279 1 1 0.000000 20.989187 -4.478568 -24.204929 # A 
280 1 1 0.000000 20.996172 -4.923369 -25.034100 # A 
281 1 1 0.000000 20.284492 -4.370569 -25.245268 # A 
282 1 1 0.000000 19.933821 -5.113053 -24.687597 # A 
283 1 1 0.000000 19.462296 -4.994686 -25.610561 # A 
284 1 1 0.000000 19.741259 -4.138369 -26.097513 # A 
285 1 1 0.000000 19.429741 -3.868304 -26.942326 # A 
286 1 1 0.000000 18.832636 -4.580286 -26.551973 # A 
287 1 1 0.000000 18.303415 -4.210181 -27.331745 # A 
288 1 1 0.000000 18.589525 -3.247084 -27.237616 # A 
289 1 1 0.000000 19.019491 -3.783165 -28.088224 # A 
290 1 1 0.000000 18.165535 -4.298014 -28.485493 # A 
291 1 1 0.000000 17.962778 -3.375063 -28.101952 # A 
292 1 1 0.000000 17.632837 -3.532820 -29.080738 # A 
293 1 1 0.000000 17.306082 -2.794397 -29.589207 # A 
294 1 1 0.000000 17.446379 -1.947017 -29.221565 # A 
295 1 1 0.000000 16.822577 -1.438283 -29.782488 # A 
296 1 1 0.000000 17.485683 -0.846561 -29.489676 # A 
297 1 1 0.000000 17.910780 0.052580 -29.958549 # A 
298 1 1 0.000000 18.842667 0.482588 -30.206985 # A 
299 1 1 0.000000 18.749483 -0.346196 -30.564795 # A 
300 1 1 0.000000 19.309551 -1.060436 -30.485271 # A 
301 1 1 0.000000 19.215302 -1.803920 -30.917257 # A 
302 1 1 0.000000 18.884476 -2.689524 -31.261087 # A 
303 1 1 0.000000 18.858658 -3.789837 -31.254150 # A 
304 1 1 0.000000 19.047344 -4.571077 -30.820284 # A 
305 1 1 0.000000 18.221006 -5.014150 -30.601196 # A 
306 1 1 0.000000 18.006165 -5.581196 -29.819719 # A 
307 1 1 0.000000 17.041443 -5.600440 -29.542553 # A 
308 1 1 0.000000 16.480850 -6.442057 -29.497795 # A 
309 1 1 0.000000 16.372574 -7.421627 -29.192230 # A 
310 1 1 0.000000 15.920059 -7.453791 -30.078304 # A 
311 1 1 0.000000 15.426418 -6.938601 -29.419720 # A 
312 1 1 0.000000 14.499223 -6.608008 -29.545324 # A 
313 1 1 0.000000 13.513111 -6.046771 -29.696173 # A 
314 1 1 0.000000 12.500381 -6.198915 -29.967199 # A 
315 1 1 0.000000 12.640131 -5.318935 -29.481876 # A 
316 1 1 0.000000 12.299479 -4.662539 -28.960926 # A 
317 1 1 0.000000 12.041796 -4.327420 -29.686087 # A 
318 1 1 0.000000 11.444608 -4.031271 -28.815947 # A 
319 1 1 0.000000 12.009414 -3.323902 -29.108418 # A 
320 1 1 0.000000 12.691381 -3.638236 -28.932205 # A 
321 1 1 0.000000 12.293815 -3.829615 -28.177418 # A 
322 1 1 0.000000 12.190672 -3.540557 -27.171619 # A 
323 1 1 0.000000 11.212206 -3.856488 -26.864162 # A 
324 1 1 0.000000 11.406125 -3.108042 -26.416216 # A 
325 1 1 0.000000 11.869491 -2.313287 -26.252613 # A 
326 1 1 0.000000 12.254499 -1.426673 -25.824430 # A 
327 1 1 0.000000 12.230833 -1.129091 -25.037573 # A 
328 1 1 0.000000 12.585163 -0.437541 -25.475115 # A 
329 1 1 0.000000 12.287634 0.203173 -26.078760 # A 
330 1 1 0.000000 13.188406 0.102152 -26.255651 # A 
331 1 1 0.000000 12.728195 -0.745348 -26.554544 # A 
332 1 1 0.000000 12.913099 -0.125142 -27.340452 # A 
333 1 1 0.000000 13.191525 0.099800 -28.281582 # A 
334 1 1 0.000000 12.966767 -0.554551 -29.216852 # A 
335 1 1 0.000000 12.246878 -1.066937 -29.515718 # A 
336 1 1 0.000000 12.321863 -2.136802 -29.590422 # A 
337 1 1 0.000000 11.305861 -1.772452 -29.827497 # A 
338 1 1 0.000000 11.528673 -1.162515 -30.327211 # A 
339 1 1 0.000000 12.049539 -0.700199 -30.693579 # A 
340 1 1 0.000000 12.506223 -1.582882 -30.516422 # A 
341 1 1 0.000000 13.175735 -1.481562 -29.860441 # A 
342 1 1 0.000000 13.112439 -0.677438 -30.352446 # A 
343 1 1 0.000000 13.966332 -0.817174 -30.230389 # A 
344 1 1 0.000000 13.880055 -1.874169 -30.540369 # A 
345 1 1 0.000000 13.603546 -2.868840 -30.641439 # A 
346 1 1 0.000000 13.333094 -2.559371 -29.857735 # A 
347 1 1 0.000000 12.928938 -3.384492 -29.887831 # A 
348 1 1 0.000000 13.156761 -4.325906 -29.632586 # A 
349 1 1 0.000000 14.021739 -4.310649 -29.400757 # A 
350 1 1 0.000000 13.826893 -3.915769 -30.370308 # A 
351 1 1 0.000000 14.214394 -4.872974 -30.369949 # A 
352 1 1 0.000000 15.090582 -5.572089 -30.644197 # A 
353 1 1 0.000000 16.069857 -5.913168 -30.359009 # A 
354 1 1 0.000000 16.567936 -5.720300 -31.338388 # A 
355 1 1 0.000000 17.222107 -5.695342 -30.613396 # A 
356 1 1 0.000000 17.219913 -4.823717 -30.221634 # A 
357 1 1 0.000000 17.570057 -4.623224 -29.362288 # A 
358 1 1 0.000000 18.022232 -4.077781 -30.009716 # A 
359 1 1 0.000000 18.661848 -4.530868 -29.515753 # A 
360 1 1 0.000000 19.036625 -5.367796 -29.806345 # A 
361 1 1 0.000000 19.948404 -5.603662 -29.635159 # A 
362 1 1 0.000000 20.665062 -5.830479 -28.891027 # A 
363 1 1 0.000000 20.802824 -4.846813 -29.296749 # A 
364 1 1 0.000000 21.551161 -4.633462 -29.786688 # A 
365 1 1 0.000000 22.467096 -4.640872 -30.294634 # A 
366 1 1 0.000000 21.724434 -4.563150 -30.882563 # A 
367 1 1 0.000000 21.655100 -4.798046 -31.842211 # A 
368 1 1 0.000000 22.442623 -4.261033 -31.684391 # A 
369 1 1 0.000000 21.868443 -3.896401 -32.495449 # A 
370 1 1 0.000000 21.506304 -3.952190 -33.441845 # A 
371 1 1 0.000000 21.568577 -3.047426 -33.138390 # A 
372 1 1 0.000000 21.152615 -2.530774 -33.940895 # A 
373 1 1 0.000000 20.450331 -2.058042 -34.469948 # A 
374 1 1 0.000000 20.639217 -2.474305 -35.159157 # A 
375 1 1 0.000000 21.559061 -2.208361 -34.911423 # A 
376 1 1 0.000000 21.345587 -1.503429 -34.760281 # A 
377 1 1 0.000000 22.178627 -1.130037 -34.657436 # A 
378 1 1 0.000000 21.373714 -0.424189 -34.815361 # A 
379 1 1 0.000000 21.361217 0.144380 -33.939095 # A 
380 1 1 0.000000 20.698101 0.481414 -33.243744 # A 
381 1 1 0.000000 20.239607 0.914753 -32.449402 # A 
382 1 1 0.000000 21.071615 1.331534 -32.737099 # A 
383 1 1 0.000000 21.205194 0.357674 -32.307301 # A 
384 1 1 0.000000 21.619585 1.105727 -31.808558 # A 
385 1 1 0.000000 20.746458 0.874642 -31.452753 # A 
386 1 1 0.000000 20.625284 1.791970 -31.790676 # A 
387 1 1 0.000000 19.707081 1.226362 -31.578707 # A 
388 1 1 0.000000 20.101126 1.611379 -30.796120 # A 
389 1 1 0.000000 19.650137 2.344511 -31.554132 # A 
390 1 1 0.000000 19.106205 3.002376 -32.126915 # A 
391 1 1 0.000000 19.037172 3.781423 -32.870876 # A 
392 1 1 0.000000 18.217079 3.562925 -32.499664 # A 
393 1 1 0.000000 17.781122 3.877896 -33.387604 # A 
394 1 1 0.000000 17.000612 3.885872 -33.806366 # A 
395 1 1 0.000000 16.949207 4.725056 -33.568871 # A 
396 1 1 0.000000 17.216358 5.206166 -32.772804 # A 
397 1 1 0.000000 17.301630 4.344615 -32.516140 # A 
398 1 1 0.000000 16.524897 4.256143 -32.662315 # A 
399 1 1 0.000000 16.085423 5.142512 -33.054863 # A 
400 1 1 0.000000 16.360727 5.164756 -32.100632 # A 
401 1 1 0.000000 15.499368 5.319694 -31.747398 # A 
402 1 1 0.000000 15.452318 4.554367 -32.407162 # A 
403 1 1 0.000000 15.657330 4.166481 -33.309040 # A 
404 1 1 0.000000 15.158616 4.033227 -34.159435 # A 
405 1 1 0.000000 15.979189 3.695241 -34.230019 # A 
406 1 1 0.000000 16.604053 3.384361 -34.796059 # A 
407 1 1 0.000000 15.885120 3.298450 -35.404938 # A 
408 1 1 0.000000 15.470914 3.791202 -35.189213 # A 
409 1 1 0.000000 15.756216 4.738911 -35.443829 # A 
410 1 1 0.000000 15.205304 4.826153 -34.759541 # A 
411 1 1 0.000000 14.725816 4.553085 -35.465134 # A 
412 1 1 0.000000 14.305914 5.159314 -35.839504 # A 
413 1 1 0.000000 15.062107 5.512205 -35.832542 # A 
414 1 1 0.000000 15.196929 4.762544 -36.361629 # A 
415 1 1 0.000000 15.428783 4.209215 -36.343006 # A 
416 1 1 0.000000 15.745124 4.213549 -37.077843 # A 
417 1 1 0.000000 15.484260 3.836761 -37.845245 # A 
418 1 1 0.000000 15.090345 2.857068 -37.581867 # A 
419 1 1 0.000000 15.034669 3.376019 -36.907200 # A 
420 1 1 0.000000 15.721387 2.860119 -36.356991 # A 
421 1 1 0.000000 16.233175 3.471404 -36.484005 # A 
422 1 1 0.000000 16.509598 3.967975 -35.977859 # A 
423 1 1 0.000000 17.070288 3.093316 -35.877636 # A 
424 1 1 0.000000 17.177786 3.163319 -36.931625 # A 
425 1 1 0.000000 17.945988 2.571180 -37.482136 # A 
426 1 1 0.000000 17.578892 1.851493 -38.094433 # A 
427 1 1 0.000000 17.949377 2.642726 -38.606216 # A 
428 1 1 0.000000 18.210686 3.395298 -39.134045 # A 
429 1 1 0.000000 17.470259 3.612413 -38.370461 # A 
430 1 1 0.000000 16.612637 3.762571 -37.692833 # A 
431 1 1 0.000000 16.977770 2.725573 -37.965736 # A 
432 1 1 0.000000 16.187984 2.835583 -37.349552 # A 
433 1 1 0.000000 16.015059 2.966661 -38.296005 # A 
434 1 1 0.000000 16.400431 3.664994 -38.856678 # A 
435 1 1 0.000000 16.207100 4.165634 -39.753502 # A 
436 1 1 0.000000 15.893822 4.244514 -40.723610 # A 
437 1 1 0.000000 16.935020 4.207264 -40.576736 # A 
438 1 1 0.000000 16.750788 3.363022 -40.666508 # A 
439 1 1 0.000000 17.281092 2.644527 -41.004662 # A 
440 1 1 0.000000 17.186193 2.568156 -41.807343 # A 
441 1 1 0.000000 17.356192 3.441828 -41.894131 # A 
442 1 1 0.000000 18.004522 4.112049 -42.421276 # A 
443 1 1 0.000000 18.824999 4.619498 -42.959148 # A 
444 1 1 0.000000 19.363176 4.585084 -43.838223 # A 
445 1 1 0.000000 20.033911 4.420231 -44.421215 # A 
446 1 1 0.000000 20.278488 5.169657 -44.017544 # A 
447 1 1 0.000000 19.943792 5.445076 -44.855717 # A 
448 1 1 0.000000 20.810129 4.969913 -45.004078 # A 
449 1 1 0.000000 21.053120 5.769402 -44.489704 # A 
450 1 1 0.000000 21.407518 6.424139 -43.898968 # A 
451 1 1 0.000000 20.714914 6.961955 -43.392094 # A 
452 1 1 0.000000 20.327866 6.259381 -43.818710 # A 
453 1 1 0.000000 19.580343 6.626660 -43.521961 # A 
454 1 1 0.000000 19.403219 5.574779 -43.360157 # A 
455 1 1 0.000000 18.954533 6.069744 -42.819820 # A 
456 1 1 0.000000 18.341757 5.538811 -42.578770 # A 
457 1 1 0.000000 17.480097 5.148508 -42.370247 # A 
458 1 1 0.000000 18.007814 4.935292 -41.672264 # A 
459 1 1 0.000000 17.992102 4.973688 -40.699100 # A 
460 1 1 0.000000 18.301073 5.158378 -39.711678 # A 
461 1 1 0.000000 18.840363 6.117964 -39.519196 # A 
462 1 1 0.000000 17.873840 6.165318 -39.574574 # A 
463 1 1 0.000000 18.087132 7.086517 -39.301075 # A 
464 1 1 0.000000 18.504616 6.800708 -40.254063 # A 
465 1 1 0.000000 18.294325 5.974044 -40.560638 # A 
466 1 1 0.000000 18.733477 5.712026 -41.418812 # A 
467 1 1 0.000000 18.967196 4.713864 -41.223820 # A 
468 1 1 0.000000 19.120674 5.263363 -40.470798 # A 
469 1 1 0.000000 19.351217 4.946207 -39.687504 # A 
470 1 1 0.000000 19.511547 4.253654 -40.349346 # A 
471 1 1 0.000000 18.625134 4.262276 -40.132626 # A 
472 1 1 0.000000 19.144648 3.994832 -39.321064 # A 
473 1 1 0.000000 19.004675 3.272470 -40.085114 # A 
474 1 1 0.000000 18.956388 2.438838 -40.463169 # A 
475 1 1 0.000000 18.723906 1.577978 -40.972965 # A 
476 1 1 0.000000 18.133532 2.100301 -41.362183 # A 
477 1 1 0.000000 18.370375 1.708757 -42.126144 # A 
478 1 1 0.000000 18.194992 1.339808 -43.121464 # A 
479 1 1 0.000000 17.756603 2.026536 -43.836666 # A 
480 1 1 0.000000 18.046034 2.314408 -44.756779 # A 
481 1 1 0.000000 17.750891 3.254435 -44.823761 # A 
482 1 1 0.000000 18.495583 3.653745 -45.519791 # A 
483 1 1 0.000000 19.274939 4.343579 -45.310760 # A 
484 1 1 0.000000 18.942125 4.500435 -46.221214 # A 
485 1 1 0.000000 17.932417 4.440389 -46.049873 # A 
486 1 1 0.000000 17.238792 4.228798 -46.668148 # A 
487 1 1 0.000000 16.588915 4.036140 -45.936180 # A 
488 1 1 0.000000 16.320015 4.857122 -46.468540 # A 
489 1 1 0.000000 16.995621 5.104658 -45.912231 # A 
490 1 1 0.000000 16.237104 4.906267 -45.340023 # A 
491 1 1 0.000000 15.802492 5.135285 -44.418343 # A 
492 1 1 0.000000 15.070263 4.429529 -44.339497 # A 
493 1 1 0.000000 14.385879 4.537451 -43.624622 # A 
494 1 1 0.000000 14.545156 5.354228 -43.021317 # A 
495 1 1 0.000000 15.353778 5.056317 -43.446125 # A 
496 1 1 0.000000 16.054926 5.507444 -43.226112 # A 
497 1 1 0.000000 16.411783 5.358548 -42.313248 # A 
498 1 1 0.000000 15.447438 5.269987 -42.356880 # A 
499 1 1 0.000000 15.623363 4.679586 -41.775398 # A 
500 1 1 0.000000 16.513081 4.858207 -41.392384 # A 
501 1 1 0.000000 16.364042 3.878391 -41.607319 # A 
502 1 1 0.000000 16.799767 4.284930 -42.305328 # A 
503 1 1 0.000000 16.038258 4.383545 -42.853539 # A 
504 1 1 0.000000 15.331189 4.012317 -43.420254 # A 
505 1 1 0.000000 14.972455 4.388227 -42.668747 # A 
506 1 1 0.000000 15.433398 3.706786 -42.216682 # A 
507 1 1 0.000000 15.513143 3.059671 -42.980385 # A 
508 1 1 0.000000 14.490481 3.507197 -43.091351 # A 
509 1 1 0.000000 13.442487 3.393007 -42.954941 # A 
510 1 1 0.000000 13.305226 3.602492 -43.925861 # A 
511 1 1 0.000000 12.899169 4.358086 -43.400223 # A 
512 1 1 0.000000 12.326662 3.555511 -43.349392 # A 
513 1 1 0.000000 11.844494 4.357367 -43.881573 # A 
514 1 1 0.000000 12.078891 5.140859 -43.349964 # A 
515 1 1 0.000000 11.989050 5.844793 -44.104538 # A 
516 1 1 0.000000 11.816398 6.193049 -43.377621 # A 
517 1 1 0.000000 11.968895 7.045813 -43.321270 # A 
518 1 1 0.000000 11.518340 6.816693 -44.183018 # A 
519 1 1 0.000000 10.990350 7.415890 -43.830894 # A 
520 1 1 0.000000 10.937429 6.796703 -43.115650 # A 
521 1 1 0.000000 10.895193 5.684216 -43.056404 # A 
522 1 1 0.000000 10.798281 6.033403 -43.978291 # A 
523 1 1 0.000000 11.096456 5.180027 -43.977699 # A 
524 1 1 0.000000 10.773629 4.419566 -43.913914 # A 
525 1 1 0.000000 11.010451 4.633442 -44.934757 # A 
526 1 1 0.000000 10.501958 4.499152 -45.847950 # A 
527 1 1 0.000000 10.637207 5.326866 -46.411911 # A 
528 1 1 0.000000 11.050519 5.670098 -47.226650 # A 
529 1 1 0.000000 10.695632 6.369743 -46.683144 # A 
530 1 1 0.000000 9.960560 5.970458 -47.258625 # A 
531 1 1 0.000000 9.826688 5.897749 -48.239403 # A 
532 1 1 0.000000 9.600491 5.792238 -49.178375 # A 
533 1 1 0.000000 10.025170 6.478299 -49.751404 # A 
534 1 1 0.000000 10.372677 7.318112 -50.174835 # A 
535 1 1 0.000000 10.488415 6.546148 -50.798836 # A 
536 1 1 0.000000 10.779886 5.797918 -50.317688 # A 
537 1 1 0.000000 11.240826 5.165443 -50.821636 # A 
538 1 1 0.000000 10.470327 4.714069 -50.383656 # A 
539 1 1 0.000000 9.745711 5.431238 -50.203117 # A 
540 1 1 0.000000 8.777428 5.332975 -49.702911 # A 
541 1 1 0.000000 8.644084 5.325118 -48.669495 # A 
542 1 1 0.000000 7.867453 4.929832 -49.063305 # A 
543 1 1 0.000000 7.500757 5.080907 -48.076538 # A 
544 1 1 0.000000 6.768751 5.041685 -48.706566 # A 
545 1 1 0.000000 7.066002 5.737603 -49.268627 # A 
546 1 1 0.000000 7.738369 6.010426 -48.584698 # A 
547 1 1 0.000000 6.848066 6.122004 -48.277275 # A 
548 1 1 0.000000 6.562260 5.456370 -47.678394 # A 
549 1 1 0.000000 6.473651 4.638764 -47.798637 # A 
550 1 1 0.000000 7.007933 4.674703 -47.037945 # A 
551 1 1 0.000000 6.032211 5.014421 -46.855888 # A 
552 1 1 0.000000 6.499359 4.828748 -46.039848 # A 
553 1 1 0.000000 6.937185 5.675513 -46.591217 # A 
554 1 1 0.000000 6.804551 6.477546 -47.268055 # A 
555 1 1 0.000000 7.236139 7.122612 -46.705357 # A 
556 1 1 0.000000 7.712023 7.854122 -47.303509 # A 
557 1 1 0.000000 7.003268 7.318744 -47.786842 # A 
558 1 1 0.000000 6.773158 8.256025 -48.071922 # A 
559 1 1 0.000000 5.889394 8.541363 -48.451973 # A 
560 1 1 0.000000 5.982993 8.786016 -47.558632 # A 
561 1 1 0.000000 5.027333 8.986135 -47.957977 # A 
562 1 1 0.000000 5.169803 8.046494 -47.682869 # A 
563 1 1 0.000000 5.630894 7.865433 -46.826580 # A 
564 1 1 0.000000 5.951020 8.710282 -46.483574 # A 
565 1 1 0.000000 5.082087 8.873995 -46.855938 # A 
566 1 1 0.000000 5.495015 9.719293 -47.262375 # A 