LAMMPS data file. CGCMM style. atom_style full generated by VMD/TopoTools v1.7 on Mon Aug 06 11:47:06 EDT 2018
 16000 atoms
 15999 bonds
 15998 angles
 0 dihedrals
 0 impropers
 1 atom types
 1 bond types
 1 angle types
 0 dihedral types
 0 improper types
 29.640817 84.770166  xlo xhi
 -1.056881 54.072468  ylo yhi
 -73.490755 -18.361406  zlo zhi

# Pair Coeffs
#
# 1  A

# Bond Coeffs
#
# 1  polymer

# Angle Coeffs
#
# 1  A-A-A

 Masses

 1 1.000000 # A

 Atoms # full

1 1 1 0.000000 13.436535 -2.858146 -18.235563 # A 
2 1 1 0.000000 13.949333 -2.504899 -18.950253 # A 
3 1 1 0.000000 14.222180 -3.267512 -19.445681 # A 
4 1 1 0.000000 13.772078 -3.801317 -18.752279 # A 
5 1 1 0.000000 14.474290 -4.268710 -18.281515 # A 
6 1 1 0.000000 14.739466 -4.756253 -17.458483 # A 
7 1 1 0.000000 15.461308 -4.555786 -16.737041 # A 
8 1 1 0.000000 15.778646 -4.495617 -17.607927 # A 
9 1 1 0.000000 15.119855 -3.715539 -17.586193 # A 
10 1 1 0.000000 14.548359 -3.151300 -18.324877 # A 
11 1 1 0.000000 14.040934 -3.498302 -17.603321 # A 
12 1 1 0.000000 13.582982 -3.117042 -16.834423 # A 
13 1 1 0.000000 13.805976 -2.253850 -17.344501 # A 
14 1 1 0.000000 13.634984 -1.178649 -17.318060 # A 
15 1 1 0.000000 14.500691 -1.390310 -17.629513 # A 
16 1 1 0.000000 14.571498 -0.614626 -17.085741 # A 
17 1 1 0.000000 14.110745 0.095787 -16.474714 # A 
18 1 1 0.000000 13.676904 0.324756 -15.524851 # A 
19 1 1 0.000000 13.270792 0.849534 -14.981483 # A 
20 1 1 0.000000 14.228134 1.013637 -14.806250 # A 
21 1 1 0.000000 13.877082 1.598888 -15.515289 # A 
22 1 1 0.000000 13.411649 1.192214 -16.175081 # A 
23 1 1 0.000000 12.559387 0.927241 -15.798142 # A 
24 1 1 0.000000 12.155706 0.979828 -15.068494 # A 
25 1 1 0.000000 11.470193 1.417782 -15.317078 # A 
26 1 1 0.000000 10.884880 1.044719 -15.984844 # A 
27 1 1 0.000000 10.996085 0.414126 -16.856316 # A 
28 1 1 0.000000 11.792702 1.084566 -16.535923 # A 
29 1 1 0.000000 11.858031 0.725296 -17.391083 # A 
30 1 1 0.000000 12.720375 0.608746 -16.857613 # A 
31 1 1 0.000000 13.023771 1.482208 -17.239376 # A 
32 1 1 0.000000 13.198254 1.669594 -18.216690 # A 
33 1 1 0.000000 13.359536 2.144401 -19.138260 # A 
34 1 1 0.000000 13.916203 1.885320 -19.965460 # A 
35 1 1 0.000000 14.413442 2.525406 -19.441744 # A 
36 1 1 0.000000 15.442412 2.652487 -19.699017 # A 
37 1 1 0.000000 16.342472 2.778088 -19.549049 # A 
38 1 1 0.000000 16.006327 2.515073 -18.673334 # A 
39 1 1 0.000000 16.037062 2.735103 -17.676449 # A 
40 1 1 0.000000 16.346748 1.814416 -17.831615 # A 
41 1 1 0.000000 17.051945 1.496355 -17.261576 # A 
42 1 1 0.000000 16.991924 2.427982 -17.101240 # A 
43 1 1 0.000000 17.943432 2.068254 -16.847509 # A 
44 1 1 0.000000 17.911112 1.028522 -16.756065 # A 
45 1 1 0.000000 18.716841 0.562694 -16.808540 # A 
46 1 1 0.000000 18.566795 0.934827 -15.862497 # A 
47 1 1 0.000000 19.566767 1.004913 -16.152048 # A 
48 1 1 0.000000 18.906765 1.672506 -16.649261 # A 
49 1 1 0.000000 18.713799 2.042706 -17.646818 # A 
50 1 1 0.000000 18.730076 2.459146 -18.719631 # A 
51 1 1 0.000000 18.511637 2.707825 -19.702257 # A 
52 1 1 0.000000 18.099268 2.407347 -20.586308 # A 
53 1 1 0.000000 18.251722 2.883514 -21.326754 # A 
54 1 1 0.000000 17.936258 2.573824 -21.958353 # A 
55 1 1 0.000000 18.569296 2.015215 -22.441811 # A 
56 1 1 0.000000 17.844492 1.502770 -22.169666 # A 
57 1 1 0.000000 18.544962 1.799697 -21.341600 # A 
58 1 1 0.000000 19.171768 2.505993 -21.744190 # A 
59 1 1 0.000000 19.159977 2.638108 -20.730690 # A 
60 1 1 0.000000 18.644430 3.533723 -20.522373 # A 
61 1 1 0.000000 17.706106 3.489818 -20.615076 # A 
62 1 1 0.000000 17.454006 2.931078 -19.956772 # A 
63 1 1 0.000000 16.643051 3.200673 -20.519701 # A 
64 1 1 0.000000 17.136826 2.692700 -21.195126 # A 
65 1 1 0.000000 17.387796 1.818009 -21.238871 # A 
66 1 1 0.000000 17.836201 1.023268 -21.112522 # A 
67 1 1 0.000000 18.504425 0.724795 -21.767466 # A 
68 1 1 0.000000 17.509031 0.461626 -22.022635 # A 
69 1 1 0.000000 16.894089 -0.115781 -21.702475 # A 
70 1 1 0.000000 16.483587 -0.376313 -20.919220 # A 
71 1 1 0.000000 16.671776 0.207592 -20.205538 # A 
72 1 1 0.000000 16.214203 -0.617897 -19.820822 # A 
73 1 1 0.000000 15.543772 -0.882541 -20.592218 # A 
74 1 1 0.000000 15.574291 0.056616 -20.467041 # A 
75 1 1 0.000000 14.727183 0.309466 -20.777750 # A 
76 1 1 0.000000 14.429341 0.608658 -21.687883 # A 
77 1 1 0.000000 14.865940 -0.203428 -22.057720 # A 
78 1 1 0.000000 14.996220 -0.767162 -22.937403 # A 
79 1 1 0.000000 15.337060 -1.215317 -22.085598 # A 
80 1 1 0.000000 15.874688 -0.611099 -21.751467 # A 
81 1 1 0.000000 15.876285 -0.175966 -22.610895 # A 
82 1 1 0.000000 16.707191 -0.659562 -22.613371 # A 
83 1 1 0.000000 16.065113 -1.310638 -22.942102 # A 
84 1 1 0.000000 16.716106 -1.761468 -23.506058 # A 
85 1 1 0.000000 15.826806 -1.982874 -23.848114 # A 
86 1 1 0.000000 16.305553 -2.820792 -24.247438 # A 
87 1 1 0.000000 16.893284 -2.798266 -25.019810 # A 
88 1 1 0.000000 16.649542 -1.857916 -24.621283 # A 
89 1 1 0.000000 17.577599 -1.965873 -24.845980 # A 
90 1 1 0.000000 17.385120 -2.516453 -24.075016 # A 
91 1 1 0.000000 17.942680 -3.031147 -24.810522 # A 
92 1 1 0.000000 18.689451 -3.798735 -24.735662 # A 
93 1 1 0.000000 18.913038 -4.144312 -23.861980 # A 
94 1 1 0.000000 19.292202 -4.607654 -23.067980 # A 
95 1 1 0.000000 19.088074 -4.825579 -22.155386 # A 
96 1 1 0.000000 19.175335 -5.554351 -21.447853 # A 
97 1 1 0.000000 19.305809 -5.928685 -22.325169 # A 
98 1 1 0.000000 18.963493 -5.670351 -23.227520 # A 
99 1 1 0.000000 19.456888 -5.987209 -24.085049 # A 
100 1 1 0.000000 20.053028 -6.686723 -24.414652 # A 
101 1 1 0.000000 20.400881 -7.422369 -24.829176 # A 
102 1 1 0.000000 20.901447 -8.175609 -25.090332 # A 
103 1 1 0.000000 21.493492 -7.635638 -24.624022 # A 
104 1 1 0.000000 21.463341 -6.639121 -24.118393 # A 
105 1 1 0.000000 21.615566 -7.482447 -23.550531 # A 
106 1 1 0.000000 20.648756 -7.363182 -23.757076 # A 
107 1 1 0.000000 20.857157 -7.558333 -22.783459 # A 
108 1 1 0.000000 20.252745 -7.748700 -21.946112 # A 
109 1 1 0.000000 19.685867 -8.195148 -21.201582 # A 
110 1 1 0.000000 20.364429 -7.589973 -20.812351 # A 
111 1 1 0.000000 21.156223 -7.392853 -21.399464 # A 
112 1 1 0.000000 21.914461 -6.860297 -21.386133 # A 
113 1 1 0.000000 21.899946 -6.419562 -22.281853 # A 
114 1 1 0.000000 21.909857 -6.043452 -23.158960 # A 
115 1 1 0.000000 21.852926 -5.665049 -24.002262 # A 
116 1 1 0.000000 21.781244 -4.687777 -24.004148 # A 
117 1 1 0.000000 21.786428 -4.573092 -24.934393 # A 
118 1 1 0.000000 21.143377 -5.275901 -24.761681 # A 
119 1 1 0.000000 22.066841 -5.611829 -25.033434 # A 
120 1 1 0.000000 22.739267 -5.127409 -24.494829 # A 
121 1 1 0.000000 22.815090 -4.527226 -25.414431 # A 
122 1 1 0.000000 22.280775 -3.748267 -25.382090 # A 
123 1 1 0.000000 22.619246 -3.127307 -25.936245 # A 
124 1 1 0.000000 22.050653 -2.380913 -26.319199 # A 
125 1 1 0.000000 21.579729 -2.895037 -25.667782 # A 
126 1 1 0.000000 20.825129 -2.574558 -26.105766 # A 
127 1 1 0.000000 20.355032 -1.713018 -26.319744 # A 
128 1 1 0.000000 19.784813 -2.415090 -25.733646 # A 
129 1 1 0.000000 18.945456 -2.818393 -25.218660 # A 
130 1 1 0.000000 19.054213 -3.619570 -25.713318 # A 
131 1 1 0.000000 18.967258 -2.870327 -26.296644 # A 
132 1 1 0.000000 19.706282 -2.601121 -26.752594 # A 
133 1 1 0.000000 20.514311 -2.751581 -27.239220 # A 
134 1 1 0.000000 20.107908 -3.575809 -26.624752 # A 
135 1 1 0.000000 20.566387 -3.778144 -27.555632 # A 
136 1 1 0.000000 20.028641 -4.538411 -27.274618 # A 
137 1 1 0.000000 19.698429 -5.520517 -27.451153 # A 
138 1 1 0.000000 18.854776 -6.119404 -27.460173 # A 
139 1 1 0.000000 18.419584 -5.874157 -26.670851 # A 
140 1 1 0.000000 18.859612 -5.446775 -26.036018 # A 
141 1 1 0.000000 18.678320 -4.622739 -25.468971 # A 
142 1 1 0.000000 17.936604 -3.865305 -25.553450 # A 
143 1 1 0.000000 17.571072 -4.648799 -25.914776 # A 
144 1 1 0.000000 17.741261 -4.786072 -24.917606 # A 
145 1 1 0.000000 17.957075 -5.568619 -25.492374 # A 
146 1 1 0.000000 17.354750 -5.709601 -26.422007 # A 
147 1 1 0.000000 16.278879 -5.895204 -26.456148 # A 
148 1 1 0.000000 15.297012 -6.410270 -26.843729 # A 
149 1 1 0.000000 14.600572 -6.838354 -27.173904 # A 
150 1 1 0.000000 15.105614 -7.560471 -27.572510 # A 
151 1 1 0.000000 15.253878 -7.226862 -28.679811 # A 
152 1 1 0.000000 15.276561 -6.540861 -28.031769 # A 
153 1 1 0.000000 14.626356 -6.011797 -28.669765 # A 
154 1 1 0.000000 14.537716 -5.799118 -27.662916 # A 
155 1 1 0.000000 13.758177 -6.225778 -28.017469 # A 
156 1 1 0.000000 12.983848 -6.592500 -27.572063 # A 
157 1 1 0.000000 13.637182 -6.350932 -27.007061 # A 
158 1 1 0.000000 13.819749 -6.761524 -26.220432 # A 
159 1 1 0.000000 13.688071 -7.476044 -25.656023 # A 
160 1 1 0.000000 12.871599 -7.502895 -25.989401 # A 
161 1 1 0.000000 13.332130 -7.472795 -26.869045 # A 
162 1 1 0.000000 13.096005 -7.766128 -27.806789 # A 
163 1 1 0.000000 13.859667 -7.403842 -27.771542 # A 
164 1 1 0.000000 14.329162 -7.031490 -28.227034 # A 
165 1 1 0.000000 14.185499 -7.203725 -29.007631 # A 
166 1 1 0.000000 13.267812 -6.967103 -28.638405 # A 
167 1 1 0.000000 12.679451 -6.377281 -28.861828 # A 
168 1 1 0.000000 12.198621 -5.884183 -29.626354 # A 
169 1 1 0.000000 12.161325 -5.288401 -30.451151 # A 
170 1 1 0.000000 12.227135 -4.283110 -30.462055 # A 
171 1 1 0.000000 12.671541 -4.724097 -31.300642 # A 
172 1 1 0.000000 12.599729 -4.673491 -32.346935 # A 
173 1 1 0.000000 12.960217 -5.149547 -33.122677 # A 
174 1 1 0.000000 12.871209 -4.371710 -33.804317 # A 
175 1 1 0.000000 13.779637 -4.505830 -33.337418 # A 
176 1 1 0.000000 14.133227 -4.062297 -32.578194 # A 
177 1 1 0.000000 14.209328 -3.864246 -31.660864 # A 
178 1 1 0.000000 14.385262 -3.056453 -32.366692 # A 
179 1 1 0.000000 13.974399 -2.206093 -32.188026 # A 
180 1 1 0.000000 14.410070 -1.783373 -31.332918 # A 
181 1 1 0.000000 15.104059 -2.432573 -31.808767 # A 
182 1 1 0.000000 14.288037 -2.892586 -31.266874 # A 
183 1 1 0.000000 15.190117 -3.011453 -30.912157 # A 
184 1 1 0.000000 16.019949 -3.371863 -31.020718 # A 
185 1 1 0.000000 16.843596 -3.067294 -30.441212 # A 
186 1 1 0.000000 17.350330 -2.395261 -30.357830 # A 
187 1 1 0.000000 18.356636 -2.612581 -30.420164 # A 
188 1 1 0.000000 18.085646 -1.877324 -30.962448 # A 
189 1 1 0.000000 17.744463 -2.747706 -31.376215 # A 
190 1 1 0.000000 18.884693 -2.432889 -31.443615 # A 
191 1 1 0.000000 19.636091 -2.438382 -32.147694 # A 
192 1 1 0.000000 18.815922 -3.075467 -32.310493 # A 
193 1 1 0.000000 19.265415 -3.449276 -33.128601 # A 
194 1 1 0.000000 19.129528 -4.122118 -32.444614 # A 
195 1 1 0.000000 18.371460 -4.192471 -33.114574 # A 
196 1 1 0.000000 17.804842 -4.854235 -33.752445 # A 
197 1 1 0.000000 17.394220 -5.467001 -34.392765 # A 
198 1 1 0.000000 17.567150 -4.512418 -34.835518 # A 
199 1 1 0.000000 18.432232 -4.154132 -34.916096 # A 
200 1 1 0.000000 18.909027 -4.185203 -35.637001 # A 
201 1 1 0.000000 19.794109 -3.638375 -35.498272 # A 
202 1 1 0.000000 19.500515 -3.886852 -34.564270 # A 
203 1 1 0.000000 20.553562 -3.863917 -34.701542 # A 
204 1 1 0.000000 21.434233 -3.444648 -34.550293 # A 
205 1 1 0.000000 22.307301 -3.859343 -34.213100 # A 
206 1 1 0.000000 22.977528 -4.109897 -34.977661 # A 
207 1 1 0.000000 23.798553 -4.646609 -34.370399 # A 
208 1 1 0.000000 24.250252 -4.647042 -33.516808 # A 
209 1 1 0.000000 24.765944 -3.990268 -33.810577 # A 
210 1 1 0.000000 25.425467 -3.116275 -33.653912 # A 
211 1 1 0.000000 24.440348 -2.999402 -34.008942 # A 
212 1 1 0.000000 24.098322 -2.000436 -33.972301 # A 
213 1 1 0.000000 24.443523 -1.110588 -33.778091 # A 
214 1 1 0.000000 24.998930 -1.326727 -34.413799 # A 
215 1 1 0.000000 25.151585 -1.575706 -35.234966 # A 
216 1 1 0.000000 25.109062 -1.568047 -36.294003 # A 
217 1 1 0.000000 24.518894 -0.815833 -35.698074 # A 
218 1 1 0.000000 23.819971 -0.200145 -35.564304 # A 
219 1 1 0.000000 23.819315 0.563375 -34.906742 # A 
220 1 1 0.000000 22.917864 0.500515 -34.451061 # A 
221 1 1 0.000000 23.259239 -0.390627 -34.591240 # A 
222 1 1 0.000000 23.810101 0.247243 -33.888813 # A 
223 1 1 0.000000 24.762152 0.696562 -34.183453 # A 
224 1 1 0.000000 24.773581 -0.103155 -33.589924 # A 
225 1 1 0.000000 25.372725 -0.233481 -34.271931 # A 
226 1 1 0.000000 25.837025 -0.543864 -34.833984 # A 
227 1 1 0.000000 26.628464 -0.570142 -34.329674 # A 
228 1 1 0.000000 26.987761 -0.294943 -33.436821 # A 
229 1 1 0.000000 27.502850 -1.154180 -33.502312 # A 
230 1 1 0.000000 27.600956 -0.996541 -34.535660 # A 
231 1 1 0.000000 28.377636 -0.835870 -35.142384 # A 
232 1 1 0.000000 29.404127 -0.471575 -35.219795 # A 
233 1 1 0.000000 29.280832 -0.334829 -35.983173 # A 
234 1 1 0.000000 28.921726 0.492071 -35.464615 # A 
235 1 1 0.000000 29.294609 1.318369 -35.555210 # A 
236 1 1 0.000000 28.568445 1.273271 -36.277996 # A 
237 1 1 0.000000 28.510025 0.244766 -36.545681 # A 
238 1 1 0.000000 29.388035 0.628036 -36.491924 # A 
239 1 1 0.000000 29.868828 0.020552 -36.815544 # A 
240 1 1 0.000000 30.488073 0.627541 -36.580284 # A 
241 1 1 0.000000 30.058201 1.437210 -36.883049 # A 
242 1 1 0.000000 29.449764 1.916161 -36.504940 # A 
243 1 1 0.000000 29.767862 2.297887 -35.576855 # A 
244 1 1 0.000000 28.770607 2.236692 -35.747921 # A 
245 1 1 0.000000 27.984447 1.916176 -35.636738 # A 
246 1 1 0.000000 28.046320 2.100566 -36.660606 # A 
247 1 1 0.000000 27.240746 2.453354 -36.341072 # A 
248 1 1 0.000000 26.440586 1.743706 -36.384830 # A 
249 1 1 0.000000 27.312208 1.353928 -36.283577 # A 
250 1 1 0.000000 27.539902 0.666487 -36.403011 # A 
251 1 1 0.000000 27.573503 0.481770 -37.187553 # A 
252 1 1 0.000000 27.295443 -0.287549 -37.969540 # A 
253 1 1 0.000000 26.532814 -0.262162 -38.705215 # A 
254 1 1 0.000000 26.644173 -1.250315 -39.027554 # A 
255 1 1 0.000000 26.658861 -1.122556 -38.088009 # A 
256 1 1 0.000000 26.319710 -1.803009 -38.004707 # A 
257 1 1 0.000000 26.567524 -2.678006 -38.516201 # A 
258 1 1 0.000000 25.872042 -3.269861 -38.350323 # A 
259 1 1 0.000000 25.447777 -3.402341 -37.420147 # A 
260 1 1 0.000000 24.836033 -3.290031 -37.890999 # A 
261 1 1 0.000000 24.930012 -2.628146 -36.818222 # A 
262 1 1 0.000000 24.758753 -2.569788 -35.838017 # A 
263 1 1 0.000000 24.079554 -1.870099 -36.096062 # A 
264 1 1 0.000000 23.506704 -1.541690 -35.582550 # A 
265 1 1 0.000000 22.963680 -1.928783 -35.087952 # A 
266 1 1 0.000000 23.372850 -2.674370 -34.467175 # A 
267 1 1 0.000000 23.502266 -3.610319 -34.161835 # A 
268 1 1 0.000000 23.989038 -3.598899 -33.107426 # A 
269 1 1 0.000000 24.950722 -3.803466 -32.742390 # A 
270 1 1 0.000000 24.862226 -3.620947 -31.766569 # A 
271 1 1 0.000000 24.164288 -2.939059 -31.785362 # A 
272 1 1 0.000000 24.898046 -2.370188 -31.690809 # A 
273 1 1 0.000000 25.185223 -2.755917 -32.465977 # A 
274 1 1 0.000000 25.788828 -3.043285 -31.646095 # A 
275 1 1 0.000000 25.868568 -3.414757 -30.633642 # A 
276 1 1 0.000000 25.385887 -4.074106 -29.926956 # A 
277 1 1 0.000000 24.554474 -4.200928 -29.394453 # A 
278 1 1 0.000000 24.477789 -5.039773 -29.879562 # A 
279 1 1 0.000000 23.931873 -5.742768 -29.675056 # A 
280 1 1 0.000000 24.310833 -6.574593 -29.996302 # A 
281 1 1 0.000000 24.400583 -5.858281 -30.662094 # A 
282 1 1 0.000000 23.626896 -5.918834 -30.803284 # A 
283 1 1 0.000000 23.344961 -6.004184 -31.780390 # A 
284 1 1 0.000000 23.684772 -6.670832 -32.324711 # A 
285 1 1 0.000000 24.006655 -5.673151 -32.653770 # A 
286 1 1 0.000000 23.147194 -5.959797 -32.924561 # A 
287 1 1 0.000000 23.013235 -5.131140 -32.394062 # A 
288 1 1 0.000000 22.312872 -5.267651 -33.218807 # A 
289 1 1 0.000000 23.236282 -4.968554 -33.435051 # A 
290 1 1 0.000000 22.690456 -4.878810 -34.233574 # A 
291 1 1 0.000000 21.908596 -4.739889 -34.865284 # A 
292 1 1 0.000000 21.953465 -4.005121 -35.470009 # A 
293 1 1 0.000000 21.074026 -3.522927 -35.638741 # A 
294 1 1 0.000000 20.638905 -2.708498 -34.948223 # A 
295 1 1 0.000000 21.332609 -1.982669 -35.163521 # A 
296 1 1 0.000000 22.086584 -1.274304 -35.236423 # A 
297 1 1 0.000000 22.844221 -0.674399 -35.626057 # A 
298 1 1 0.000000 22.662779 -1.470027 -36.247410 # A 
299 1 1 0.000000 22.695961 -1.939625 -37.198498 # A 
300 1 1 0.000000 23.077269 -2.669936 -37.465771 # A 
301 1 1 0.000000 23.464819 -3.477983 -37.618378 # A 
302 1 1 0.000000 23.603718 -4.271170 -38.235909 # A 
303 1 1 0.000000 23.038395 -5.115445 -38.197403 # A 
304 1 1 0.000000 22.847012 -6.009217 -37.847118 # A 
305 1 1 0.000000 22.351692 -6.514740 -37.132217 # A 
306 1 1 0.000000 21.745150 -7.002086 -36.462978 # A 
307 1 1 0.000000 20.876125 -6.545118 -36.215958 # A 
308 1 1 0.000000 21.060236 -7.346519 -35.659523 # A 
309 1 1 0.000000 20.862867 -8.219646 -35.008049 # A 
310 1 1 0.000000 20.143175 -7.929381 -35.623016 # A 
311 1 1 0.000000 19.498709 -7.205234 -35.783958 # A 
312 1 1 0.000000 18.668581 -7.682781 -35.485409 # A 
313 1 1 0.000000 18.425842 -6.840900 -35.951836 # A 
314 1 1 0.000000 17.837769 -6.340960 -36.703209 # A 
315 1 1 0.000000 17.632233 -6.114096 -35.744850 # A 
316 1 1 0.000000 17.148287 -5.331648 -35.433617 # A 
317 1 1 0.000000 16.600887 -5.740883 -35.987720 # A 
318 1 1 0.000000 16.042694 -5.246774 -35.305874 # A 
319 1 1 0.000000 16.440033 -4.765419 -34.501137 # A 
320 1 1 0.000000 16.444920 -3.896251 -34.015335 # A 
321 1 1 0.000000 15.682793 -4.404447 -33.551685 # A 
322 1 1 0.000000 15.150658 -4.511176 -32.598835 # A 
323 1 1 0.000000 15.907074 -3.989109 -32.549091 # A 
324 1 1 0.000000 15.198783 -3.494876 -32.970966 # A 
325 1 1 0.000000 15.235554 -3.644343 -31.827211 # A 
326 1 1 0.000000 15.963950 -3.123730 -32.002998 # A 
327 1 1 0.000000 16.576397 -2.578563 -31.452507 # A 
328 1 1 0.000000 17.056210 -1.613621 -31.204006 # A 
329 1 1 0.000000 17.403814 -1.941204 -31.963646 # A 
330 1 1 0.000000 18.148275 -2.216076 -32.363701 # A 
331 1 1 0.000000 18.808575 -2.444852 -33.259727 # A 
332 1 1 0.000000 18.889542 -3.091571 -34.100246 # A 
333 1 1 0.000000 18.870071 -3.147213 -35.158436 # A 
334 1 1 0.000000 18.590572 -2.600537 -35.589417 # A 
335 1 1 0.000000 17.582228 -2.562808 -35.561211 # A 
336 1 1 0.000000 16.735800 -2.682070 -35.785866 # A 
337 1 1 0.000000 16.513256 -1.816835 -35.575428 # A 
338 1 1 0.000000 15.995194 -1.978648 -36.419510 # A 
339 1 1 0.000000 16.326300 -1.352777 -37.078632 # A 
340 1 1 0.000000 16.748823 -1.061412 -36.437706 # A 
341 1 1 0.000000 17.073891 -2.020827 -36.573250 # A 
342 1 1 0.000000 17.520378 -1.529590 -35.753181 # A 
343 1 1 0.000000 18.204361 -1.967131 -36.404186 # A 
344 1 1 0.000000 17.828129 -2.859397 -36.602028 # A 
345 1 1 0.000000 18.448851 -3.579263 -36.387131 # A 
346 1 1 0.000000 17.970478 -3.560887 -35.699860 # A 
347 1 1 0.000000 17.761395 -4.354323 -35.911041 # A 
348 1 1 0.000000 17.578035 -5.246762 -36.406693 # A 
349 1 1 0.000000 18.244740 -5.214328 -35.495819 # A 
350 1 1 0.000000 18.620035 -4.945449 -36.370197 # A 
351 1 1 0.000000 19.238470 -5.546185 -37.024136 # A 
352 1 1 0.000000 20.176414 -6.137517 -37.290016 # A 
353 1 1 0.000000 21.115526 -6.481201 -37.286316 # A 
354 1 1 0.000000 21.725693 -5.842495 -37.757984 # A 
355 1 1 0.000000 22.357861 -5.351327 -37.191624 # A 
356 1 1 0.000000 21.755966 -5.837796 -36.543179 # A 
357 1 1 0.000000 22.224869 -5.052559 -36.039326 # A 
358 1 1 0.000000 22.928799 -5.787871 -36.363819 # A 
359 1 1 0.000000 24.125420 -5.618558 -36.461918 # A 
360 1 1 0.000000 24.690683 -6.392759 -36.010361 # A 
361 1 1 0.000000 24.192944 -7.301950 -35.770466 # A 
362 1 1 0.000000 24.837982 -6.996641 -35.060253 # A 
363 1 1 0.000000 25.661373 -6.483036 -35.506592 # A 
364 1 1 0.000000 25.709608 -6.273807 -36.524265 # A 
365 1 1 0.000000 26.268110 -5.572114 -36.531643 # A 
366 1 1 0.000000 26.506283 -6.017558 -37.431698 # A 
367 1 1 0.000000 26.798094 -5.174594 -37.704033 # A 
368 1 1 0.000000 26.651062 -4.449117 -38.160938 # A 
369 1 1 0.000000 25.782812 -4.741974 -38.424374 # A 
370 1 1 0.000000 25.272490 -4.721303 -39.031750 # A 
371 1 1 0.000000 25.077423 -3.991790 -38.842426 # A 
372 1 1 0.000000 24.289642 -3.475569 -38.821125 # A 
373 1 1 0.000000 24.503181 -3.351545 -39.820942 # A 
374 1 1 0.000000 25.364994 -3.128940 -40.337475 # A 
375 1 1 0.000000 25.912676 -2.700365 -41.008541 # A 
376 1 1 0.000000 26.769894 -2.339988 -41.271168 # A 
377 1 1 0.000000 26.651472 -1.760342 -40.444199 # A 
378 1 1 0.000000 26.160202 -0.965493 -40.071949 # A 
379 1 1 0.000000 25.291983 -0.688921 -39.699947 # A 
380 1 1 0.000000 24.492506 -0.159927 -39.820911 # A 
381 1 1 0.000000 24.416637 -0.093878 -38.939590 # A 
382 1 1 0.000000 25.312056 -0.131116 -38.487946 # A 
383 1 1 0.000000 25.126892 -1.002922 -38.145313 # A 
384 1 1 0.000000 25.039478 -0.284284 -37.372803 # A 
385 1 1 0.000000 24.336584 -0.249283 -37.881901 # A 
386 1 1 0.000000 24.605110 0.648409 -38.130451 # A 
387 1 1 0.000000 23.658936 0.639577 -37.844677 # A 
388 1 1 0.000000 24.275183 0.576879 -37.084568 # A 
389 1 1 0.000000 24.206331 1.520245 -37.496605 # A 
390 1 1 0.000000 23.517715 1.758557 -38.218567 # A 
391 1 1 0.000000 23.122393 2.571537 -38.825108 # A 
392 1 1 0.000000 22.231184 2.474415 -38.404266 # A 
393 1 1 0.000000 22.125641 2.759234 -39.239647 # A 
394 1 1 0.000000 21.257673 2.895062 -39.683270 # A 
395 1 1 0.000000 21.760149 3.748049 -39.498779 # A 
396 1 1 0.000000 21.489315 4.368991 -38.743843 # A 
397 1 1 0.000000 21.924332 3.526609 -38.402176 # A 
398 1 1 0.000000 21.192730 2.798380 -38.467075 # A 
399 1 1 0.000000 20.834694 3.525334 -38.908707 # A 
400 1 1 0.000000 20.779699 3.740663 -38.063267 # A 
401 1 1 0.000000 21.380781 3.344358 -37.416786 # A 
402 1 1 0.000000 20.551617 2.819128 -37.469151 # A 
403 1 1 0.000000 19.955742 3.107043 -38.312336 # A 
404 1 1 0.000000 20.274284 2.629852 -39.234764 # A 
405 1 1 0.000000 20.352337 1.833564 -39.688255 # A 
406 1 1 0.000000 20.203735 2.394270 -40.654346 # A 
407 1 1 0.000000 19.906679 2.505206 -41.777393 # A 
408 1 1 0.000000 20.455780 3.252559 -41.308922 # A 
409 1 1 0.000000 20.273746 3.738828 -42.093357 # A 
410 1 1 0.000000 19.724861 4.083574 -41.288177 # A 
411 1 1 0.000000 19.288239 3.332756 -41.795048 # A 
412 1 1 0.000000 18.768629 4.188100 -41.978638 # A 
413 1 1 0.000000 19.600468 4.678843 -42.212448 # A 
414 1 1 0.000000 19.418253 3.852904 -42.786152 # A 
415 1 1 0.000000 19.751774 3.108183 -42.857101 # A 
416 1 1 0.000000 19.810324 3.017278 -43.914696 # A 
417 1 1 0.000000 19.469276 2.138952 -44.444962 # A 
418 1 1 0.000000 18.855381 2.433733 -44.041996 # A 
419 1 1 0.000000 19.323084 2.227482 -43.369606 # A 
420 1 1 0.000000 19.932234 1.968972 -42.783268 # A 
421 1 1 0.000000 20.556955 2.476835 -42.911392 # A 
422 1 1 0.000000 20.871479 2.856582 -42.346695 # A 
423 1 1 0.000000 21.246429 2.118854 -42.219898 # A 
424 1 1 0.000000 21.524849 2.177840 -43.283318 # A 
425 1 1 0.000000 21.753086 1.205348 -43.591923 # A 
426 1 1 0.000000 21.261465 0.804622 -44.483658 # A 
427 1 1 0.000000 21.704712 1.569362 -44.825142 # A 
428 1 1 0.000000 21.228565 2.304692 -45.576431 # A 
429 1 1 0.000000 21.452108 2.609671 -44.641689 # A 
430 1 1 0.000000 20.921635 2.845016 -43.854179 # A 
431 1 1 0.000000 20.389694 1.939256 -43.815296 # A 
432 1 1 0.000000 20.946861 1.715318 -44.055882 # A 
433 1 1 0.000000 20.537027 1.777150 -44.832497 # A 
434 1 1 0.000000 20.367853 2.738161 -44.853664 # A 
435 1 1 0.000000 20.251152 3.167182 -45.771481 # A 
436 1 1 0.000000 19.684299 3.347567 -46.642418 # A 
437 1 1 0.000000 20.606434 3.135187 -46.822109 # A 
438 1 1 0.000000 21.400051 2.679432 -46.927174 # A 
439 1 1 0.000000 21.819172 1.860059 -46.913269 # A 
440 1 1 0.000000 21.684689 2.281585 -47.977810 # A 
441 1 1 0.000000 21.898609 2.807765 -48.655426 # A 
442 1 1 0.000000 22.566397 3.436805 -48.242546 # A 
443 1 1 0.000000 22.747076 3.402133 -49.185303 # A 
444 1 1 0.000000 23.445034 3.206967 -50.053154 # A 
445 1 1 0.000000 24.105131 3.228878 -50.779938 # A 
446 1 1 0.000000 24.106405 4.028890 -50.272770 # A 
447 1 1 0.000000 24.042423 4.310087 -51.213192 # A 
448 1 1 0.000000 24.933189 3.986626 -50.949768 # A 
449 1 1 0.000000 25.396048 4.840385 -50.648746 # A 
450 1 1 0.000000 25.719397 5.493282 -49.983326 # A 
451 1 1 0.000000 24.956573 5.931761 -49.555599 # A 
452 1 1 0.000000 24.597509 5.075517 -49.972313 # A 
453 1 1 0.000000 23.870573 5.675250 -49.696419 # A 
454 1 1 0.000000 23.568167 4.685948 -49.544556 # A 
455 1 1 0.000000 23.100060 5.172130 -49.006321 # A 
456 1 1 0.000000 22.513212 4.410666 -48.788334 # A 
457 1 1 0.000000 21.708147 3.829315 -48.907341 # A 
458 1 1 0.000000 21.523993 3.621182 -47.919449 # A 
459 1 1 0.000000 21.685066 3.679864 -46.972595 # A 
460 1 1 0.000000 22.257175 4.123202 -46.288265 # A 
461 1 1 0.000000 22.927860 4.947659 -45.898319 # A 
462 1 1 0.000000 22.488764 5.386126 -45.231434 # A 
463 1 1 0.000000 22.604849 6.415181 -44.999882 # A 
464 1 1 0.000000 22.870457 6.152869 -45.861134 # A 
465 1 1 0.000000 22.616102 5.574121 -46.635071 # A 
466 1 1 0.000000 22.872305 4.758126 -46.934834 # A 
467 1 1 0.000000 22.639378 4.050037 -47.364799 # A 
468 1 1 0.000000 23.227745 3.398941 -47.094387 # A 
469 1 1 0.000000 23.429651 4.042277 -46.439522 # A 
470 1 1 0.000000 24.188097 3.371350 -46.444553 # A 
471 1 1 0.000000 23.347239 2.978565 -46.061295 # A 
472 1 1 0.000000 24.111820 2.866854 -45.441902 # A 
473 1 1 0.000000 24.162834 2.257239 -46.185959 # A 
474 1 1 0.000000 23.707453 1.526694 -46.673996 # A 
475 1 1 0.000000 22.922028 1.088474 -47.095585 # A 
476 1 1 0.000000 22.393755 1.483450 -47.877693 # A 
477 1 1 0.000000 22.033970 1.522165 -48.820099 # A 
478 1 1 0.000000 22.264507 1.406266 -49.810623 # A 
479 1 1 0.000000 21.671431 1.305640 -50.489212 # A 
480 1 1 0.000000 22.454374 1.826029 -50.959709 # A 
481 1 1 0.000000 22.950533 2.200804 -50.233017 # A 
482 1 1 0.000000 23.109499 2.617013 -51.162899 # A 
483 1 1 0.000000 23.439247 3.355794 -51.639969 # A 
484 1 1 0.000000 23.004532 3.261459 -52.446381 # A 
485 1 1 0.000000 22.158394 3.049958 -52.839481 # A 
486 1 1 0.000000 21.361357 3.652506 -52.444977 # A 
487 1 1 0.000000 20.678747 4.225796 -52.287510 # A 
488 1 1 0.000000 20.038467 4.964971 -52.241360 # A 
489 1 1 0.000000 20.829626 5.133741 -51.626549 # A 
490 1 1 0.000000 20.282812 4.311161 -51.235592 # A 
491 1 1 0.000000 19.498627 3.953164 -50.718708 # A 
492 1 1 0.000000 18.691545 3.823898 -50.098423 # A 
493 1 1 0.000000 18.966167 4.794383 -50.145206 # A 
494 1 1 0.000000 19.053446 4.581718 -49.180931 # A 
495 1 1 0.000000 19.706209 4.121781 -49.673271 # A 
496 1 1 0.000000 20.272003 4.741204 -49.397144 # A 
497 1 1 0.000000 20.802202 4.325009 -48.511208 # A 
498 1 1 0.000000 19.917112 4.178309 -48.553539 # A 
499 1 1 0.000000 19.544207 3.901994 -47.694988 # A 
500 1 1 0.000000 20.453075 3.615767 -47.785358 # A 
501 1 1 0.000000 20.741098 2.762289 -47.858326 # A 
502 1 1 0.000000 20.846785 3.101573 -48.654926 # A 
503 1 1 0.000000 20.493793 3.514562 -49.169102 # A 
504 1 1 0.000000 19.714354 3.009561 -49.412182 # A 
505 1 1 0.000000 19.739655 3.116370 -48.439747 # A 
506 1 1 0.000000 20.187723 2.267100 -48.793339 # A 
507 1 1 0.000000 19.655273 1.424278 -48.979923 # A 
508 1 1 0.000000 18.771191 1.402998 -49.331501 # A 
509 1 1 0.000000 17.941671 1.720043 -49.690891 # A 
510 1 1 0.000000 17.090895 2.051840 -49.098480 # A 
511 1 1 0.000000 17.497820 2.831937 -49.709061 # A 
512 1 1 0.000000 16.613680 3.046785 -49.352215 # A 
513 1 1 0.000000 15.970738 3.724552 -49.976460 # A 
514 1 1 0.000000 16.125288 4.536894 -49.577995 # A 
515 1 1 0.000000 16.512842 5.014621 -50.302483 # A 
516 1 1 0.000000 16.155130 5.586523 -49.713486 # A 
517 1 1 0.000000 15.939722 6.613875 -49.800018 # A 
518 1 1 0.000000 15.401619 6.132926 -50.437660 # A 
519 1 1 0.000000 14.889878 6.470552 -49.650528 # A 
520 1 1 0.000000 15.072226 5.567274 -49.444073 # A 
521 1 1 0.000000 14.993599 4.620094 -49.527145 # A 
522 1 1 0.000000 15.400813 4.972673 -50.281998 # A 
523 1 1 0.000000 15.054457 4.051682 -50.547501 # A 
524 1 1 0.000000 14.741469 3.458191 -51.429043 # A 
525 1 1 0.000000 13.678755 3.479340 -51.387794 # A 
526 1 1 0.000000 14.070850 3.712187 -52.292271 # A 
527 1 1 0.000000 14.956041 4.261569 -52.408016 # A 
528 1 1 0.000000 15.368093 4.639822 -53.277519 # A 
529 1 1 0.000000 14.879559 5.284641 -52.748138 # A 
530 1 1 0.000000 14.221592 4.721590 -53.332767 # A 
531 1 1 0.000000 13.963465 4.860045 -54.325775 # A 
532 1 1 0.000000 13.973199 4.752063 -55.303333 # A 
533 1 1 0.000000 14.205125 5.584669 -55.810452 # A 
534 1 1 0.000000 14.755617 6.264759 -56.306725 # A 
535 1 1 0.000000 14.478605 5.522127 -56.883034 # A 
536 1 1 0.000000 15.293680 5.340616 -56.252846 # A 
537 1 1 0.000000 15.065416 4.543652 -56.814083 # A 
538 1 1 0.000000 14.688475 4.496487 -56.036007 # A 
539 1 1 0.000000 13.876702 4.763695 -56.488724 # A 
540 1 1 0.000000 13.141303 4.400411 -55.855579 # A 
541 1 1 0.000000 13.060668 4.548649 -54.823841 # A 
542 1 1 0.000000 12.332323 3.997228 -55.092636 # A 
543 1 1 0.000000 11.639858 3.391397 -54.759090 # A 
544 1 1 0.000000 11.211826 4.117598 -54.691605 # A 
545 1 1 0.000000 11.304519 4.637540 -55.338966 # A 
546 1 1 0.000000 12.003092 4.989683 -54.631413 # A 
547 1 1 0.000000 11.029099 5.202148 -54.369804 # A 
548 1 1 0.000000 10.658131 4.477150 -53.826462 # A 
549 1 1 0.000000 11.640018 4.537291 -53.724888 # A 
550 1 1 0.000000 11.626742 3.705056 -53.668926 # A 
551 1 1 0.000000 10.773705 3.460820 -53.349880 # A 
552 1 1 0.000000 10.583044 3.684977 -52.374886 # A 
553 1 1 0.000000 11.043717 4.382341 -52.814396 # A 
554 1 1 0.000000 10.982226 5.362310 -53.307919 # A 
555 1 1 0.000000 11.454684 6.067883 -52.799107 # A 
556 1 1 0.000000 11.835372 6.764509 -53.422386 # A 
557 1 1 0.000000 11.129320 6.208074 -53.898170 # A 
558 1 1 0.000000 11.020358 7.225163 -54.220181 # A 
559 1 1 0.000000 10.144418 7.534327 -54.563778 # A 
560 1 1 0.000000 10.247534 7.700614 -53.551842 # A 
561 1 1 0.000000 9.307874 7.975205 -54.029339 # A 
562 1 1 0.000000 9.485140 6.977781 -53.827744 # A 
563 1 1 0.000000 9.951968 6.814454 -52.948841 # A 
564 1 1 0.000000 10.025440 7.530317 -52.350185 # A 