LAMMPS data file. CGCMM style. atom_style full generated by VMD/TopoTools v1.7 on Mon Aug 06 11:33:15 EDT 2018
 10000 atoms
 9999 bonds
 9998 angles
 0 dihedrals
 0 impropers
 1 atom types
 1 bond types
 1 angle types
 0 dihedral types
 0 improper types
 16.342666 63.477596  xlo xhi
 29.982735 77.117665  ylo yhi
 -70.918017 -23.783087  zlo zhi

# Pair Coeffs
#
# 1  A

# Bond Coeffs
#
# 1  polymer

# Angle Coeffs
#
# 1  A-A-A

 Masses

 1 1.000000 # A

 Atoms # full

1 1 1 0.000000 11.408151 -2.851700 -15.821280 # A 
2 1 1 0.000000 12.136148 -2.231397 -16.221918 # A 
3 1 1 0.000000 12.032060 -3.025926 -16.790575 # A 
4 1 1 0.000000 12.435801 -3.234179 -15.954164 # A 
5 1 1 0.000000 11.741749 -3.973589 -15.746821 # A 
6 1 1 0.000000 12.043920 -4.597475 -14.944202 # A 
7 1 1 0.000000 12.574558 -4.239206 -14.123879 # A 
8 1 1 0.000000 13.168499 -4.623755 -14.834150 # A 
9 1 1 0.000000 12.760496 -4.270057 -15.711566 # A 
10 1 1 0.000000 12.717841 -3.600442 -14.984032 # A 
11 1 1 0.000000 11.838583 -3.543349 -14.734528 # A 
12 1 1 0.000000 12.037680 -2.596353 -14.476060 # A 
13 1 1 0.000000 11.668492 -1.555460 -14.340411 # A 
14 1 1 0.000000 11.299516 -0.683330 -14.146212 # A 
15 1 1 0.000000 11.103415 0.260759 -14.316329 # A 
16 1 1 0.000000 10.486895 -0.106388 -13.654473 # A 
17 1 1 0.000000 10.751823 0.021485 -12.810973 # A 
18 1 1 0.000000 10.774837 0.888067 -12.481407 # A 
19 1 1 0.000000 11.022750 1.522245 -11.748796 # A 
20 1 1 0.000000 11.866125 1.169999 -12.171959 # A 
21 1 1 0.000000 11.430424 1.639307 -12.919560 # A 
22 1 1 0.000000 11.509929 1.252540 -13.808697 # A 
23 1 1 0.000000 10.821415 0.957578 -13.529235 # A 
24 1 1 0.000000 10.592584 1.859919 -13.659248 # A 
25 1 1 0.000000 10.100323 1.613023 -12.894100 # A 
26 1 1 0.000000 9.850008 0.630884 -13.132528 # A 
27 1 1 0.000000 9.791849 1.197644 -13.945653 # A 
28 1 1 0.000000 9.987470 0.459580 -14.433216 # A 
29 1 1 0.000000 10.656269 0.551051 -15.267190 # A 
30 1 1 0.000000 10.677347 1.289800 -14.586274 # A 
31 1 1 0.000000 11.151344 2.012154 -14.534078 # A 
32 1 1 0.000000 11.136977 1.931381 -15.516102 # A 
33 1 1 0.000000 11.515141 2.535614 -16.237961 # A 
34 1 1 0.000000 12.085404 2.252710 -17.065178 # A 
35 1 1 0.000000 12.511885 2.966070 -16.588770 # A 
36 1 1 0.000000 13.484858 3.076742 -16.974646 # A 
37 1 1 0.000000 14.374139 3.212350 -16.797935 # A 
38 1 1 0.000000 14.122813 2.998975 -15.908400 # A 
39 1 1 0.000000 14.038250 3.230663 -14.943227 # A 
40 1 1 0.000000 14.343266 2.274378 -15.060104 # A 
41 1 1 0.000000 15.105031 1.968024 -14.448886 # A 
42 1 1 0.000000 14.999102 2.945380 -14.397353 # A 
43 1 1 0.000000 15.963707 2.636539 -14.279545 # A 
44 1 1 0.000000 16.357367 2.121719 -13.632409 # A 
45 1 1 0.000000 16.796799 1.553066 -14.215849 # A 
46 1 1 0.000000 16.815840 1.177779 -13.257225 # A 
47 1 1 0.000000 17.397812 1.938461 -13.253547 # A 
48 1 1 0.000000 17.304750 2.490083 -14.085839 # A 
49 1 1 0.000000 16.691816 2.401782 -14.962023 # A 
50 1 1 0.000000 16.775721 2.894202 -16.008869 # A 
51 1 1 0.000000 16.544682 3.152027 -16.925779 # A 
52 1 1 0.000000 16.168478 2.849241 -17.832067 # A 
53 1 1 0.000000 16.348373 3.300695 -18.589653 # A 
54 1 1 0.000000 15.950016 2.997442 -19.204077 # A 
55 1 1 0.000000 16.634136 2.503131 -19.648846 # A 
56 1 1 0.000000 15.927024 1.930961 -19.394903 # A 
57 1 1 0.000000 16.620275 2.202038 -18.577290 # A 
58 1 1 0.000000 17.274704 2.911502 -18.943785 # A 
59 1 1 0.000000 17.226639 3.043355 -17.994104 # A 
60 1 1 0.000000 16.765114 3.965257 -17.788090 # A 
61 1 1 0.000000 15.771660 3.883558 -17.867216 # A 
62 1 1 0.000000 15.506271 3.317107 -17.193319 # A 
63 1 1 0.000000 14.723131 3.651700 -17.765533 # A 
64 1 1 0.000000 15.209060 3.110831 -18.377909 # A 
65 1 1 0.000000 15.464511 2.239464 -18.461063 # A 
66 1 1 0.000000 15.908626 1.433882 -18.330677 # A 
67 1 1 0.000000 16.582033 1.138344 -19.018166 # A 
68 1 1 0.000000 15.601452 0.901187 -19.283329 # A 
69 1 1 0.000000 14.969616 0.357340 -18.942673 # A 
70 1 1 0.000000 14.618549 0.078843 -18.133780 # A 
71 1 1 0.000000 14.859975 0.639789 -17.475080 # A 
72 1 1 0.000000 14.284567 -0.198360 -17.123411 # A 
73 1 1 0.000000 13.598143 -0.394825 -17.997288 # A 
74 1 1 0.000000 13.664402 0.519201 -17.630821 # A 
75 1 1 0.000000 12.790751 0.877074 -17.649733 # A 
76 1 1 0.000000 13.148286 0.450304 -18.597374 # A 
77 1 1 0.000000 12.878188 0.190038 -19.475456 # A 
78 1 1 0.000000 13.211356 -0.389144 -20.127398 # A 
79 1 1 0.000000 13.443151 -0.738041 -19.209715 # A 
80 1 1 0.000000 14.007037 -0.149214 -18.988258 # A 
81 1 1 0.000000 14.005519 0.264829 -19.771566 # A 
82 1 1 0.000000 14.825731 -0.251480 -19.826834 # A 
83 1 1 0.000000 14.196474 -0.875399 -20.052128 # A 
84 1 1 0.000000 14.861867 -1.149551 -20.719641 # A 
85 1 1 0.000000 13.929775 -1.369643 -20.963062 # A 
86 1 1 0.000000 14.551962 -2.124230 -21.260128 # A 
87 1 1 0.000000 15.055564 -2.193755 -22.143509 # A 
88 1 1 0.000000 14.873674 -1.229266 -21.818810 # A 
89 1 1 0.000000 15.818116 -1.386211 -22.113028 # A 
90 1 1 0.000000 15.659257 -1.852077 -21.268658 # A 
91 1 1 0.000000 16.078960 -2.571244 -22.051670 # A 
92 1 1 0.000000 16.784563 -3.259490 -21.801216 # A 
93 1 1 0.000000 16.984760 -3.618766 -21.000656 # A 
94 1 1 0.000000 17.368809 -4.166567 -20.287844 # A 
95 1 1 0.000000 17.208071 -4.398872 -19.385746 # A 
96 1 1 0.000000 17.248058 -5.083824 -18.655451 # A 
97 1 1 0.000000 17.434713 -5.506414 -19.494974 # A 
98 1 1 0.000000 17.093056 -5.264863 -20.411467 # A 
99 1 1 0.000000 17.617378 -5.749267 -21.204163 # A 
100 1 1 0.000000 18.263783 -6.435864 -21.671412 # A 
101 1 1 0.000000 18.123501 -7.009701 -22.440683 # A 
102 1 1 0.000000 18.624100 -7.849856 -22.505873 # A 
103 1 1 0.000000 19.051821 -7.260753 -21.826872 # A 
104 1 1 0.000000 19.286234 -6.511848 -21.212187 # A 
105 1 1 0.000000 19.614975 -7.238918 -20.548454 # A 
106 1 1 0.000000 18.615576 -7.270979 -20.798092 # A 
107 1 1 0.000000 18.849054 -7.031836 -19.791895 # A 
108 1 1 0.000000 18.238661 -7.365630 -19.090012 # A 
109 1 1 0.000000 17.760841 -7.811743 -18.342110 # A 
110 1 1 0.000000 18.461287 -7.182851 -17.991072 # A 
111 1 1 0.000000 19.204460 -6.994768 -18.675257 # A 
112 1 1 0.000000 19.987303 -6.424300 -18.649975 # A 
113 1 1 0.000000 19.996204 -5.891507 -19.565615 # A 
114 1 1 0.000000 20.085009 -5.230760 -20.367361 # A 
115 1 1 0.000000 20.344753 -4.770412 -21.267427 # A 
116 1 1 0.000000 20.105476 -3.781665 -21.267014 # A 
117 1 1 0.000000 19.749857 -4.283120 -22.012938 # A 
118 1 1 0.000000 19.802191 -4.818654 -22.808556 # A 
119 1 1 0.000000 20.555153 -5.406734 -22.528475 # A 
120 1 1 0.000000 20.786045 -4.472087 -22.475470 # A 
121 1 1 0.000000 21.104208 -4.003416 -21.705257 # A 
122 1 1 0.000000 20.488396 -3.493992 -22.327267 # A 
123 1 1 0.000000 20.311361 -2.774724 -23.013912 # A 
124 1 1 0.000000 19.899687 -2.064101 -23.628883 # A 
125 1 1 0.000000 19.360321 -2.271857 -22.785078 # A 
126 1 1 0.000000 18.818913 -2.030717 -23.423714 # A 
127 1 1 0.000000 18.292414 -1.167454 -23.543509 # A 
128 1 1 0.000000 17.850996 -2.039599 -22.970173 # A 
129 1 1 0.000000 17.087511 -2.440557 -22.472990 # A 
130 1 1 0.000000 17.285664 -3.151381 -23.104990 # A 
131 1 1 0.000000 17.053556 -2.379445 -23.580641 # A 
132 1 1 0.000000 17.846622 -2.171083 -23.990307 # A 
133 1 1 0.000000 18.567314 -2.382950 -24.473370 # A 
134 1 1 0.000000 18.083279 -3.200984 -23.886694 # A 
135 1 1 0.000000 18.620016 -3.469194 -24.860096 # A 
136 1 1 0.000000 17.967104 -4.102738 -24.392069 # A 
137 1 1 0.000000 17.862339 -5.017562 -24.645769 # A 
138 1 1 0.000000 17.067472 -5.625456 -24.644272 # A 
139 1 1 0.000000 16.557281 -5.516983 -23.979586 # A 
140 1 1 0.000000 17.192667 -4.880447 -23.727612 # A 
141 1 1 0.000000 17.093128 -4.271456 -22.977077 # A 
142 1 1 0.000000 16.262688 -3.705844 -22.718689 # A 
143 1 1 0.000000 16.051262 -4.342963 -23.406481 # A 
144 1 1 0.000000 15.817235 -4.707536 -22.549210 # A 
145 1 1 0.000000 16.514095 -5.207181 -22.874632 # A 
146 1 1 0.000000 15.612169 -5.385413 -23.408447 # A 
147 1 1 0.000000 14.739398 -5.780978 -23.713657 # A 
148 1 1 0.000000 13.818349 -5.977169 -24.193562 # A 
149 1 1 0.000000 13.055202 -6.446111 -23.993797 # A 
150 1 1 0.000000 13.612309 -6.971707 -24.593809 # A 
151 1 1 0.000000 12.695115 -6.676330 -25.024216 # A 
152 1 1 0.000000 13.050504 -5.983016 -24.963505 # A 
153 1 1 0.000000 12.997539 -5.678153 -25.828953 # A 
154 1 1 0.000000 12.663228 -4.988672 -25.129429 # A 
155 1 1 0.000000 12.009118 -5.650983 -25.087896 # A 
156 1 1 0.000000 12.067201 -6.097692 -24.373224 # A 
157 1 1 0.000000 11.331981 -5.873580 -23.756262 # A 
158 1 1 0.000000 12.218162 -6.109671 -23.293736 # A 
159 1 1 0.000000 11.546156 -6.716021 -22.855980 # A 
160 1 1 0.000000 11.590330 -6.943490 -23.836861 # A 
161 1 1 0.000000 11.011555 -7.136271 -24.461008 # A 
162 1 1 0.000000 11.092293 -7.377715 -25.399830 # A 
163 1 1 0.000000 11.649139 -6.629620 -25.262007 # A 
164 1 1 0.000000 12.300148 -6.544586 -25.929077 # A 
165 1 1 0.000000 11.995600 -7.063557 -26.636312 # A 
166 1 1 0.000000 11.187094 -6.651539 -26.233023 # A 
167 1 1 0.000000 10.694173 -6.026884 -26.532301 # A 
168 1 1 0.000000 10.079681 -5.396195 -26.874876 # A 
169 1 1 0.000000 10.199536 -4.841480 -27.706329 # A 
170 1 1 0.000000 10.339307 -3.911155 -27.702494 # A 
171 1 1 0.000000 10.538460 -4.285123 -28.622261 # A 
172 1 1 0.000000 10.883341 -4.120824 -29.641396 # A 
173 1 1 0.000000 11.100365 -4.588222 -30.468630 # A 
174 1 1 0.000000 10.880067 -4.094484 -31.352148 # A 
175 1 1 0.000000 11.753860 -3.923306 -30.917620 # A 
176 1 1 0.000000 12.425812 -3.924070 -30.260780 # A 
177 1 1 0.000000 12.141937 -3.405476 -29.590696 # A 
178 1 1 0.000000 12.789802 -2.883770 -29.980902 # A 
179 1 1 0.000000 11.981541 -2.329287 -29.729145 # A 
180 1 1 0.000000 12.285877 -1.686617 -29.064667 # A 
181 1 1 0.000000 13.173437 -2.068139 -29.335993 # A 
182 1 1 0.000000 12.594587 -2.704666 -28.864626 # A 
183 1 1 0.000000 13.374222 -2.506527 -28.276344 # A 
184 1 1 0.000000 13.923569 -3.200556 -28.237015 # A 
185 1 1 0.000000 14.802739 -2.847188 -28.139799 # A 
186 1 1 0.000000 15.554764 -2.321514 -27.675959 # A 
187 1 1 0.000000 16.410276 -1.847207 -27.904280 # A 
188 1 1 0.000000 15.987188 -1.729524 -28.673916 # A 
189 1 1 0.000000 16.003603 -2.620918 -28.608883 # A 
190 1 1 0.000000 16.901474 -2.223735 -28.797333 # A 
191 1 1 0.000000 17.586805 -2.122207 -28.257812 # A 
192 1 1 0.000000 17.893299 -2.804116 -29.022303 # A 
193 1 1 0.000000 17.443617 -3.040853 -29.816277 # A 
194 1 1 0.000000 16.704178 -3.241923 -29.204569 # A 
195 1 1 0.000000 16.356737 -3.753053 -29.959175 # A 
196 1 1 0.000000 15.600965 -4.312472 -30.656515 # A 
197 1 1 0.000000 15.364411 -5.049312 -31.314987 # A 
198 1 1 0.000000 15.505702 -4.205119 -31.745153 # A 
199 1 1 0.000000 16.100981 -4.060992 -32.464218 # A 
200 1 1 0.000000 16.811630 -3.587590 -32.945145 # A 
201 1 1 0.000000 17.855501 -3.524690 -32.990013 # A 
202 1 1 0.000000 17.527575 -3.550179 -32.096355 # A 
203 1 1 0.000000 18.571981 -3.559829 -32.053902 # A 
204 1 1 0.000000 19.419167 -2.929633 -31.642576 # A 
205 1 1 0.000000 20.423281 -2.948251 -31.370163 # A 
206 1 1 0.000000 21.598841 -2.341939 -31.363028 # A 
207 1 1 0.000000 22.333645 -2.734469 -31.560116 # A 
208 1 1 0.000000 23.090744 -3.066350 -31.405611 # A 
209 1 1 0.000000 23.954510 -2.685705 -31.077787 # A 
210 1 1 0.000000 23.235216 -2.708784 -30.381540 # A 
211 1 1 0.000000 23.108458 -1.994035 -31.203867 # A 
212 1 1 0.000000 22.243206 -1.490350 -31.157061 # A 
213 1 1 0.000000 23.091482 -1.100552 -30.699022 # A 
214 1 1 0.000000 23.085150 -1.087718 -31.757889 # A 
215 1 1 0.000000 22.610214 -1.883562 -32.153633 # A 
216 1 1 0.000000 22.849684 -1.056795 -32.772575 # A 
217 1 1 0.000000 22.550842 -0.508606 -33.498482 # A 
218 1 1 0.000000 21.798592 -0.794213 -33.131504 # A 
219 1 1 0.000000 21.877066 0.009481 -32.734608 # A 
220 1 1 0.000000 22.018311 -0.763813 -32.056419 # A 
221 1 1 0.000000 21.935656 0.159317 -31.619860 # A 
222 1 1 0.000000 22.732018 -0.174553 -31.278883 # A 
223 1 1 0.000000 22.887308 0.664356 -31.753832 # A 
224 1 1 0.000000 22.897392 -0.033235 -32.426514 # A 
225 1 1 0.000000 23.738770 -0.145861 -31.715412 # A 
226 1 1 0.000000 24.764271 -0.200031 -32.173679 # A 
227 1 1 0.000000 24.730536 0.417717 -31.397669 # A 
228 1 1 0.000000 25.024555 -0.491167 -31.111284 # A 
229 1 1 0.000000 25.607325 -0.815373 -31.855803 # A 
230 1 1 0.000000 25.820673 0.137644 -31.594233 # A 
231 1 1 0.000000 26.711552 0.290906 -31.911165 # A 
232 1 1 0.000000 26.689575 -0.654494 -31.927916 # A 
233 1 1 0.000000 27.029163 -0.307600 -32.772190 # A 
234 1 1 0.000000 26.022272 -0.182347 -32.648510 # A 
235 1 1 0.000000 26.326042 0.664263 -32.862602 # A 
236 1 1 0.000000 26.597334 1.317880 -33.649410 # A 
237 1 1 0.000000 27.161978 1.423230 -32.928913 # A 
238 1 1 0.000000 27.458775 0.609681 -33.443947 # A 
239 1 1 0.000000 27.595856 0.748228 -34.343391 # A 
240 1 1 0.000000 28.381708 1.105829 -33.733536 # A 
241 1 1 0.000000 27.712492 1.704300 -33.818264 # A 
242 1 1 0.000000 27.002918 2.314505 -33.824997 # A 
243 1 1 0.000000 27.563885 2.487622 -33.115219 # A 
244 1 1 0.000000 26.559975 2.287581 -32.760933 # A 
245 1 1 0.000000 25.729731 2.758672 -32.770515 # A 
246 1 1 0.000000 26.046726 2.744777 -33.653816 # A 
247 1 1 0.000000 25.018604 2.787133 -33.639469 # A 
248 1 1 0.000000 24.461903 3.011328 -34.418442 # A 
249 1 1 0.000000 24.471842 2.001016 -34.210812 # A 
250 1 1 0.000000 24.522942 1.236581 -34.809586 # A 
251 1 1 0.000000 25.298136 1.249643 -35.329548 # A 
252 1 1 0.000000 24.929695 0.410618 -35.487579 # A 
253 1 1 0.000000 24.353500 0.210338 -36.050598 # A 
254 1 1 0.000000 24.909012 -0.602123 -36.083080 # A 
255 1 1 0.000000 24.444839 -0.516225 -35.221695 # A 
256 1 1 0.000000 24.462463 -1.513872 -35.370701 # A 
257 1 1 0.000000 24.730249 -2.462102 -35.278297 # A 
258 1 1 0.000000 24.173738 -3.137707 -35.757725 # A 
259 1 1 0.000000 23.666714 -2.614771 -35.023495 # A 
260 1 1 0.000000 23.241346 -1.955418 -34.406021 # A 
261 1 1 0.000000 22.431185 -2.240876 -34.053211 # A 
262 1 1 0.000000 22.274860 -1.855367 -33.218258 # A 
263 1 1 0.000000 21.634956 -1.627864 -32.527000 # A 
264 1 1 0.000000 21.176983 -1.444846 -31.658531 # A 
265 1 1 0.000000 20.912231 -2.442235 -32.221939 # A 
266 1 1 0.000000 21.446993 -3.387428 -31.326368 # A 
267 1 1 0.000000 22.206060 -3.193982 -30.554087 # A 
268 1 1 0.000000 22.227272 -3.700941 -29.506628 # A 
269 1 1 0.000000 23.136017 -3.294183 -29.223740 # A 
270 1 1 0.000000 22.588282 -2.554518 -29.560411 # A 
271 1 1 0.000000 22.129957 -2.875649 -28.767536 # A 
272 1 1 0.000000 23.053354 -2.297971 -28.650501 # A 
273 1 1 0.000000 23.720766 -2.431765 -29.470863 # A 
274 1 1 0.000000 24.027861 -2.867170 -28.541630 # A 
275 1 1 0.000000 23.625345 -3.760764 -28.309511 # A 
276 1 1 0.000000 23.024374 -3.138883 -27.996281 # A 
277 1 1 0.000000 22.581797 -3.792825 -28.419979 # A 
278 1 1 0.000000 22.173428 -3.669130 -27.573038 # A 
279 1 1 0.000000 22.977877 -3.725061 -26.981226 # A 
280 1 1 0.000000 23.054930 -4.371385 -27.680122 # A 
281 1 1 0.000000 22.680048 -4.818128 -26.908518 # A 
282 1 1 0.000000 22.043045 -4.721613 -27.721289 # A 
283 1 1 0.000000 21.651951 -4.344912 -28.515718 # A 
284 1 1 0.000000 21.499407 -4.537543 -29.487534 # A 
285 1 1 0.000000 21.266253 -5.144814 -30.204479 # A 
286 1 1 0.000000 20.352825 -5.062805 -30.578087 # A 
287 1 1 0.000000 20.609468 -4.251266 -29.987701 # A 
288 1 1 0.000000 21.307316 -3.796086 -30.239050 # A 
289 1 1 0.000000 21.296598 -4.382650 -30.983107 # A 
290 1 1 0.000000 20.450125 -3.970234 -31.013260 # A 
291 1 1 0.000000 19.854650 -3.915076 -31.848108 # A 
292 1 1 0.000000 20.108192 -3.196643 -32.490307 # A 
293 1 1 0.000000 19.114731 -2.874071 -32.719711 # A 
294 1 1 0.000000 19.850159 -2.147887 -32.655701 # A 
295 1 1 0.000000 18.911591 -1.876076 -33.128582 # A 
296 1 1 0.000000 19.446976 -1.098204 -33.018646 # A 
297 1 1 0.000000 20.193741 -0.362921 -33.351833 # A 
298 1 1 0.000000 21.137295 0.049349 -33.549534 # A 
299 1 1 0.000000 21.010033 -0.897756 -33.959721 # A 
300 1 1 0.000000 21.450714 -1.641546 -33.912922 # A 
301 1 1 0.000000 21.389647 -2.544706 -34.403923 # A 
302 1 1 0.000000 21.282043 -3.705374 -34.365341 # A 
303 1 1 0.000000 21.519249 -4.572040 -35.181038 # A 
304 1 1 0.000000 21.441616 -5.486371 -35.245060 # A 
305 1 1 0.000000 21.239887 -5.893164 -34.331844 # A 
306 1 1 0.000000 20.757605 -6.245156 -33.388702 # A 
307 1 1 0.000000 20.209101 -6.725712 -32.671127 # A 
308 1 1 0.000000 20.347050 -6.828743 -31.683601 # A 
309 1 1 0.000000 19.558731 -7.372919 -31.824009 # A 
310 1 1 0.000000 18.843792 -7.687868 -32.361893 # A 
311 1 1 0.000000 17.978930 -7.676311 -32.158997 # A 
312 1 1 0.000000 17.128292 -7.615599 -32.100700 # A 
313 1 1 0.000000 16.455120 -7.367023 -32.908413 # A 
314 1 1 0.000000 16.301643 -6.406325 -33.409969 # A 
315 1 1 0.000000 15.545815 -5.785469 -33.086205 # A 
316 1 1 0.000000 15.141095 -5.051065 -32.353783 # A 
317 1 1 0.000000 14.765209 -5.026109 -33.353512 # A 
318 1 1 0.000000 14.133640 -4.883726 -32.707901 # A 
319 1 1 0.000000 14.468996 -4.201334 -32.127796 # A 
320 1 1 0.000000 14.008500 -3.767880 -31.324850 # A 
321 1 1 0.000000 14.509153 -4.365666 -31.035975 # A 
322 1 1 0.000000 14.487631 -4.383514 -30.153688 # A 
323 1 1 0.000000 13.498379 -4.022798 -30.228676 # A 
324 1 1 0.000000 13.088394 -3.825262 -29.349648 # A 
325 1 1 0.000000 13.579924 -3.156350 -29.196352 # A 
326 1 1 0.000000 14.171556 -2.315684 -28.921614 # A 
327 1 1 0.000000 14.957006 -1.899756 -28.574923 # A 
328 1 1 0.000000 15.097646 -0.961151 -28.660646 # A 
329 1 1 0.000000 15.082346 -0.450931 -29.603481 # A 
330 1 1 0.000000 16.027397 -0.810691 -29.295496 # A 
331 1 1 0.000000 15.262725 -1.575410 -29.587622 # A 
332 1 1 0.000000 15.610765 -0.944160 -30.342819 # A 
333 1 1 0.000000 16.010496 -0.709642 -31.283224 # A 
334 1 1 0.000000 15.580460 -0.971663 -32.250088 # A 
335 1 1 0.000000 15.176715 -1.485557 -32.876808 # A 
336 1 1 0.000000 14.574727 -1.821917 -33.687969 # A 
337 1 1 0.000000 13.985639 -1.450498 -33.099640 # A 
338 1 1 0.000000 13.684605 -1.137786 -33.880928 # A 
339 1 1 0.000000 14.465616 -1.019803 -34.465855 # A 
340 1 1 0.000000 14.787827 -0.676163 -33.538517 # A 
341 1 1 0.000000 15.479683 -1.187165 -33.962799 # A 
342 1 1 0.000000 15.863626 -0.788514 -33.330555 # A 
343 1 1 0.000000 16.384003 -1.680264 -33.437260 # A 
344 1 1 0.000000 15.575647 -2.231342 -33.554806 # A 
345 1 1 0.000000 16.378878 -2.820593 -33.580292 # A 
346 1 1 0.000000 15.664918 -3.227624 -33.017548 # A 
347 1 1 0.000000 16.071470 -3.896366 -33.685642 # A 
348 1 1 0.000000 15.798660 -4.739855 -33.245716 # A 
349 1 1 0.000000 16.752876 -4.683400 -33.144592 # A 
350 1 1 0.000000 16.419247 -5.039363 -34.096046 # A 
351 1 1 0.000000 17.151133 -5.646800 -34.410759 # A 
352 1 1 0.000000 18.112047 -5.609281 -34.691154 # A 
353 1 1 0.000000 18.679449 -6.399680 -34.961494 # A 
354 1 1 0.000000 19.006481 -6.017587 -34.317223 # A 
355 1 1 0.000000 19.248613 -5.342820 -34.956688 # A 
356 1 1 0.000000 19.785715 -4.838559 -34.336994 # A 
357 1 1 0.000000 20.456434 -4.371689 -34.897617 # A 
358 1 1 0.000000 20.826731 -4.870324 -34.023804 # A 
359 1 1 0.000000 21.778563 -4.924437 -34.135822 # A 
360 1 1 0.000000 22.270355 -5.602726 -34.501217 # A 
361 1 1 0.000000 22.615782 -6.327841 -34.264011 # A 
362 1 1 0.000000 23.309072 -5.863735 -34.776142 # A 
363 1 1 0.000000 23.169037 -5.416868 -33.945808 # A 
364 1 1 0.000000 23.890474 -5.291245 -33.319958 # A 
365 1 1 0.000000 24.740490 -5.224236 -33.790417 # A 
366 1 1 0.000000 24.131792 -5.133770 -34.549110 # A 
367 1 1 0.000000 23.825893 -5.157233 -35.437851 # A 
368 1 1 0.000000 24.858387 -4.963520 -35.688637 # A 
369 1 1 0.000000 24.254601 -4.268155 -35.793842 # A 
370 1 1 0.000000 23.456127 -4.046417 -35.629177 # A 
371 1 1 0.000000 23.109936 -3.050884 -35.854675 # A 
372 1 1 0.000000 23.613756 -2.077667 -35.848766 # A 
373 1 1 0.000000 22.724907 -1.866941 -36.095295 # A 
374 1 1 0.000000 22.769890 -2.581258 -36.714352 # A 
375 1 1 0.000000 23.496422 -1.949584 -36.987961 # A 
376 1 1 0.000000 23.282047 -1.191171 -36.719524 # A 
377 1 1 0.000000 23.840960 -1.011577 -36.136742 # A 
378 1 1 0.000000 24.139376 -0.583657 -36.814110 # A 
379 1 1 0.000000 23.350342 -0.069750 -36.779636 # A 
380 1 1 0.000000 22.668777 0.432744 -36.661800 # A 
381 1 1 0.000000 22.512487 0.348580 -35.872997 # A 
382 1 1 0.000000 23.421284 0.731068 -35.995258 # A 
383 1 1 0.000000 23.418465 -0.195671 -35.634354 # A 
384 1 1 0.000000 23.813555 0.365085 -35.044689 # A 
385 1 1 0.000000 22.874737 0.428260 -34.780415 # A 
386 1 1 0.000000 22.793179 1.306209 -35.301590 # A 
387 1 1 0.000000 21.878061 0.782104 -35.048210 # A 
388 1 1 0.000000 22.323845 1.174570 -34.276443 # A 
389 1 1 0.000000 21.840347 1.831031 -34.993198 # A 
390 1 1 0.000000 21.134596 2.694725 -34.986744 # A 
391 1 1 0.000000 21.247002 3.173446 -35.865654 # A 
392 1 1 0.000000 20.297646 2.947258 -35.718922 # A 
393 1 1 0.000000 20.032829 3.358980 -36.502102 # A 
394 1 1 0.000000 19.457733 3.603564 -37.270451 # A 
395 1 1 0.000000 19.463049 4.316068 -36.577351 # A 
396 1 1 0.000000 19.555090 4.596001 -35.646187 # A 
397 1 1 0.000000 19.419582 3.651520 -35.504032 # A 
398 1 1 0.000000 18.644051 3.936438 -35.955799 # A 
399 1 1 0.000000 18.567011 4.825624 -36.319508 # A 
400 1 1 0.000000 18.495010 4.903519 -35.417767 # A 
401 1 1 0.000000 17.702866 4.441865 -35.662994 # A 
402 1 1 0.000000 17.638239 4.354543 -36.704090 # A 
403 1 1 0.000000 18.459187 4.090328 -37.137440 # A 
404 1 1 0.000000 17.715939 3.773931 -37.634956 # A 
405 1 1 0.000000 17.918062 3.195596 -36.828796 # A 
406 1 1 0.000000 18.514425 2.959820 -37.612541 # A 
407 1 1 0.000000 18.237345 3.313995 -38.443825 # A 
408 1 1 0.000000 18.863674 3.922558 -38.193649 # A 
409 1 1 0.000000 18.340059 4.213327 -39.083698 # A 
410 1 1 0.000000 18.059683 4.645307 -38.151237 # A 
411 1 1 0.000000 17.320818 4.052353 -38.622017 # A 
412 1 1 0.000000 16.977877 4.716870 -38.365459 # A 
413 1 1 0.000000 17.573277 5.068537 -39.102070 # A 
414 1 1 0.000000 17.481833 4.252117 -39.718987 # A 
415 1 1 0.000000 18.349796 3.851888 -40.127056 # A 
416 1 1 0.000000 18.422997 3.431397 -40.899094 # A 
417 1 1 0.000000 17.677803 3.072880 -41.282536 # A 
418 1 1 0.000000 17.257214 2.316734 -40.654118 # A 
419 1 1 0.000000 17.478439 3.115973 -40.185417 # A 
420 1 1 0.000000 17.977982 2.146103 -39.852364 # A 
421 1 1 0.000000 18.329885 2.964343 -39.521885 # A 
422 1 1 0.000000 19.154818 3.453696 -39.365150 # A 
423 1 1 0.000000 19.396996 2.579726 -39.404121 # A 
424 1 1 0.000000 19.995462 2.802778 -40.297279 # A 
425 1 1 0.000000 19.999014 2.004858 -41.047646 # A 
426 1 1 0.000000 19.933092 1.297140 -41.592297 # A 
427 1 1 0.000000 20.447203 1.939550 -42.069702 # A 
428 1 1 0.000000 20.707710 2.819817 -42.603058 # A 
429 1 1 0.000000 19.964581 2.932862 -41.975037 # A 
430 1 1 0.000000 19.281414 2.846521 -41.148514 # A 
431 1 1 0.000000 18.928421 2.694012 -40.336315 # A 
432 1 1 0.000000 18.348324 2.248524 -40.826454 # A 
433 1 1 0.000000 18.487745 2.490482 -41.802814 # A 
434 1 1 0.000000 18.887051 3.327977 -42.123585 # A 
435 1 1 0.000000 18.553263 3.831337 -43.080418 # A 
436 1 1 0.000000 18.277014 4.049225 -44.009438 # A 
437 1 1 0.000000 19.113966 3.530633 -44.034210 # A 
438 1 1 0.000000 19.384237 2.669747 -44.483826 # A 
439 1 1 0.000000 20.066664 2.476212 -45.136925 # A 
440 1 1 0.000000 19.461063 2.858968 -45.709698 # A 
441 1 1 0.000000 19.762598 3.569171 -45.022423 # A 
442 1 1 0.000000 20.494093 3.793520 -45.754627 # A 
443 1 1 0.000000 21.250198 4.227472 -46.420078 # A 
444 1 1 0.000000 21.522467 3.932985 -47.353405 # A 
445 1 1 0.000000 22.395887 3.783651 -47.817230 # A 
446 1 1 0.000000 22.613968 4.394571 -47.411976 # A 
447 1 1 0.000000 22.366997 5.056724 -48.000286 # A 
448 1 1 0.000000 23.086864 4.371969 -48.434811 # A 
449 1 1 0.000000 23.477087 4.970841 -47.867165 # A 
450 1 1 0.000000 23.179745 5.424198 -48.658424 # A 
451 1 1 0.000000 22.947641 5.963620 -47.790165 # A 
452 1 1 0.000000 22.870884 5.376554 -47.080524 # A 
453 1 1 0.000000 22.231127 5.937674 -46.888748 # A 
454 1 1 0.000000 21.856504 5.046918 -46.951225 # A 
455 1 1 0.000000 21.443592 5.330634 -46.230278 # A 
456 1 1 0.000000 20.639637 4.901223 -45.865505 # A 
457 1 1 0.000000 19.768593 4.547090 -45.790455 # A 
458 1 1 0.000000 20.113926 4.593840 -44.925777 # A 
459 1 1 0.000000 20.477716 4.404627 -44.124413 # A 
460 1 1 0.000000 20.735432 4.728155 -43.237976 # A 
461 1 1 0.000000 21.397388 5.545228 -42.955807 # A 
462 1 1 0.000000 20.349226 5.702662 -42.954010 # A 
463 1 1 0.000000 20.589083 6.587899 -42.627346 # A 
464 1 1 0.000000 21.021965 6.359986 -43.603931 # A 
465 1 1 0.000000 20.645933 5.489638 -43.994556 # A 
466 1 1 0.000000 21.080326 5.064726 -44.810089 # A 
467 1 1 0.000000 21.557486 4.207846 -44.426128 # A 
468 1 1 0.000000 21.639376 4.983946 -43.884300 # A 
469 1 1 0.000000 21.824711 4.592930 -43.145821 # A 
470 1 1 0.000000 22.155085 3.749093 -43.575607 # A 
471 1 1 0.000000 21.127832 3.796014 -43.487377 # A 
472 1 1 0.000000 21.541920 3.653083 -42.607555 # A 
473 1 1 0.000000 21.579142 2.888907 -43.254948 # A 
474 1 1 0.000000 21.563177 1.988204 -43.825161 # A 
475 1 1 0.000000 21.344400 1.262028 -44.477531 # A 
476 1 1 0.000000 20.508646 1.596923 -44.750755 # A 
477 1 1 0.000000 20.821999 0.992983 -45.418587 # A 
478 1 1 0.000000 20.258699 1.212131 -46.262096 # A 
479 1 1 0.000000 20.098703 1.267935 -47.303642 # A 
480 1 1 0.000000 20.265316 2.164166 -47.826550 # A 
481 1 1 0.000000 20.793306 2.976181 -48.246834 # A 
482 1 1 0.000000 21.406757 3.685728 -48.376846 # A 
483 1 1 0.000000 22.058146 4.293597 -48.885162 # A 
484 1 1 0.000000 21.180338 4.058681 -49.393845 # A 
485 1 1 0.000000 20.272497 4.216744 -49.672962 # A 
486 1 1 0.000000 19.450386 4.126838 -50.233067 # A 
487 1 1 0.000000 18.653223 3.890630 -49.669579 # A 
488 1 1 0.000000 18.595949 4.852052 -49.933411 # A 
489 1 1 0.000000 19.370777 4.735371 -49.333366 # A 
490 1 1 0.000000 18.588295 4.589709 -48.811707 # A 
491 1 1 0.000000 18.016800 4.404304 -47.997417 # A 
492 1 1 0.000000 17.172636 4.108446 -47.685303 # A 
493 1 1 0.000000 16.815001 4.056523 -46.890335 # A 
494 1 1 0.000000 16.993284 4.693604 -46.619228 # A 
495 1 1 0.000000 17.804680 4.566478 -46.919350 # A 
496 1 1 0.000000 18.563551 5.015851 -46.502880 # A 
497 1 1 0.000000 18.753548 4.947009 -45.678993 # A 
498 1 1 0.000000 17.738655 4.773586 -45.827518 # A 
499 1 1 0.000000 18.053007 4.222418 -45.229080 # A 
500 1 1 0.000000 19.055037 4.363173 -44.805542 # A 
501 1 1 0.000000 18.624901 3.336107 -44.988163 # A 
502 1 1 0.000000 18.970705 3.834901 -45.695484 # A 
503 1 1 0.000000 18.428509 3.972959 -46.280624 # A 
504 1 1 0.000000 17.762634 3.420357 -46.860210 # A 
505 1 1 0.000000 17.421110 3.702041 -45.933304 # A 
506 1 1 0.000000 18.304062 2.994602 -45.951244 # A 
507 1 1 0.000000 17.545212 2.688532 -46.146858 # A 
508 1 1 0.000000 16.770164 3.077402 -46.565933 # A 
509 1 1 0.000000 16.551609 2.164083 -46.389938 # A 
510 1 1 0.000000 15.796991 2.592076 -46.775375 # A 
511 1 1 0.000000 15.834999 3.563459 -46.999866 # A 
512 1 1 0.000000 14.877481 3.340029 -46.731174 # A 
513 1 1 0.000000 14.173154 3.907625 -47.340916 # A 
514 1 1 0.000000 14.357579 4.613283 -46.778969 # A 
515 1 1 0.000000 14.385695 5.395822 -47.506390 # A 
516 1 1 0.000000 14.116272 5.657027 -46.735672 # A 
517 1 1 0.000000 14.308839 6.485524 -46.748859 # A 
518 1 1 0.000000 13.791608 6.284770 -47.581356 # A 
519 1 1 0.000000 13.348876 6.925151 -47.170769 # A 
520 1 1 0.000000 13.226144 6.327296 -46.496513 # A 
521 1 1 0.000000 13.163093 5.233222 -46.340832 # A 
522 1 1 0.000000 13.146688 5.420743 -47.272984 # A 
523 1 1 0.000000 13.484270 4.749023 -47.502811 # A 
524 1 1 0.000000 12.881754 4.176904 -47.459431 # A 
525 1 1 0.000000 13.513944 4.177223 -48.427502 # A 
526 1 1 0.000000 12.845066 4.032836 -49.120110 # A 
527 1 1 0.000000 12.966103 4.808855 -49.768078 # A 
528 1 1 0.000000 13.307077 5.162417 -50.613075 # A 
529 1 1 0.000000 12.964803 5.846484 -50.059010 # A 
530 1 1 0.000000 12.200724 5.414961 -50.579762 # A 
531 1 1 0.000000 12.016374 5.360359 -51.523258 # A 
532 1 1 0.000000 12.028517 5.289597 -52.487232 # A 
533 1 1 0.000000 12.205083 5.888014 -53.168491 # A 
534 1 1 0.000000 12.813167 6.675522 -53.447666 # A 
535 1 1 0.000000 12.629908 5.953465 -54.115349 # A 
536 1 1 0.000000 13.443043 5.767146 -53.504555 # A 
537 1 1 0.000000 13.246905 5.043067 -54.100548 # A 
538 1 1 0.000000 12.669079 4.968413 -53.321365 # A 
539 1 1 0.000000 11.714411 4.974789 -53.573132 # A 
540 1 1 0.000000 10.979045 5.066250 -52.882992 # A 
541 1 1 0.000000 11.064096 4.985807 -51.943523 # A 
542 1 1 0.000000 10.420567 4.356017 -52.269173 # A 
543 1 1 0.000000 9.935954 4.815108 -53.057919 # A 
544 1 1 0.000000 9.288674 4.417561 -52.335926 # A 
545 1 1 0.000000 9.204586 5.464574 -52.565750 # A 
546 1 1 0.000000 9.942594 5.309882 -52.069721 # A 
547 1 1 0.000000 9.481709 5.796264 -51.467827 # A 
548 1 1 0.000000 10.296379 5.074748 -51.056747 # A 
549 1 1 0.000000 9.595262 4.489637 -51.228291 # A 
550 1 1 0.000000 9.198113 3.718765 -50.509026 # A 
551 1 1 0.000000 8.694579 3.769888 -51.243904 # A 
552 1 1 0.000000 8.048608 3.982366 -50.534950 # A 
553 1 1 0.000000 8.819382 4.728439 -50.426910 # A 
554 1 1 0.000000 9.442380 5.535041 -50.369545 # A 
555 1 1 0.000000 9.148220 6.315067 -50.518982 # A 
556 1 1 0.000000 9.636901 7.086143 -50.734550 # A 
557 1 1 0.000000 8.824974 6.799769 -51.427715 # A 
558 1 1 0.000000 9.231143 7.779169 -51.431736 # A 
559 1 1 0.000000 8.373448 7.664979 -51.826691 # A 
560 1 1 0.000000 8.395933 8.391571 -51.159855 # A 
561 1 1 0.000000 7.461523 8.066368 -51.225422 # A 
562 1 1 0.000000 7.965797 7.264749 -50.907700 # A 
563 1 1 0.000000 8.563462 7.434825 -50.513649 # A 
564 1 1 0.000000 8.815504 8.315599 -50.163464 # A 