LAMMPS data file. CGCMM style. atom_style full generated by VMD/TopoTools v1.7 on Mon Aug 06 12:27:27 EDT 2018
 40000 atoms
 39999 bonds
 39998 angles
 0 dihedrals
 0 impropers
 1 atom types
 1 bond types
 1 angle types
 0 dihedral types
 0 improper types
 -26.347649 48.474388  xlo xhi
 -14.681061 60.140976  ylo yhi
 -137.996136 -63.174099  zlo zhi

# Pair Coeffs
#
# 1  A

# Bond Coeffs
#
# 1  polymer

# Angle Coeffs
#
# 1  A-A-A

 Masses

 1 1.000000 # A

 Atoms # full

1 1 1 0.000000 17.958717 -4.295435 -25.447346 # A 
2 1 1 0.000000 18.770422 -3.697396 -25.776093 # A 
3 1 1 0.000000 18.605173 -4.497228 -26.371283 # A 
4 1 1 0.000000 18.993475 -4.683049 -25.467125 # A 
5 1 1 0.000000 18.452284 -5.435975 -25.287535 # A 
6 1 1 0.000000 18.666464 -5.981609 -24.380297 # A 
7 1 1 0.000000 19.616795 -6.166210 -24.438972 # A 
8 1 1 0.000000 19.085333 -6.428956 -25.297596 # A 
9 1 1 0.000000 19.518267 -5.606641 -25.353592 # A 
10 1 1 0.000000 19.270388 -5.090441 -24.527355 # A 
11 1 1 0.000000 18.324791 -4.913613 -24.351519 # A 
12 1 1 0.000000 18.650791 -4.113007 -24.063715 # A 
13 1 1 0.000000 18.333229 -3.089823 -23.900606 # A 
14 1 1 0.000000 17.789755 -2.211755 -23.671005 # A 
15 1 1 0.000000 17.747490 -1.274740 -23.797470 # A 
16 1 1 0.000000 17.024496 -1.691655 -23.135824 # A 
17 1 1 0.000000 16.861719 -1.447442 -22.306541 # A 
18 1 1 0.000000 17.509474 -0.926847 -21.846411 # A 
19 1 1 0.000000 17.393568 -0.394513 -21.126276 # A 
20 1 1 0.000000 18.260174 -0.221136 -21.415020 # A 
21 1 1 0.000000 17.907881 0.087364 -22.351807 # A 
22 1 1 0.000000 18.090582 -0.315348 -23.334023 # A 
23 1 1 0.000000 17.428724 -0.690042 -22.937138 # A 
24 1 1 0.000000 17.064915 0.127475 -23.102797 # A 
25 1 1 0.000000 16.739971 -0.263179 -22.230446 # A 
26 1 1 0.000000 15.884830 -0.973664 -22.316795 # A 
27 1 1 0.000000 16.342140 -0.826527 -23.109312 # A 
28 1 1 0.000000 16.587200 -1.138465 -23.953966 # A 
29 1 1 0.000000 17.217321 -0.938670 -24.701727 # A 
30 1 1 0.000000 17.288893 -0.291412 -24.101887 # A 
31 1 1 0.000000 17.643698 0.521878 -23.990509 # A 
32 1 1 0.000000 17.829250 0.492855 -25.014118 # A 
33 1 1 0.000000 18.109743 1.077690 -25.856958 # A 
34 1 1 0.000000 18.659679 0.803420 -26.667000 # A 
35 1 1 0.000000 19.137169 1.504744 -26.195143 # A 
36 1 1 0.000000 20.166721 1.638935 -26.427580 # A 
37 1 1 0.000000 21.105032 1.914619 -26.440237 # A 
38 1 1 0.000000 20.761793 1.541095 -25.546949 # A 
39 1 1 0.000000 20.839394 1.721809 -24.628649 # A 
40 1 1 0.000000 21.133778 0.811763 -24.716692 # A 
41 1 1 0.000000 21.774906 0.457093 -23.985516 # A 
42 1 1 0.000000 21.630024 1.382135 -23.916393 # A 
43 1 1 0.000000 22.632515 1.181309 -23.807709 # A 
44 1 1 0.000000 22.757050 0.567078 -23.018175 # A 
45 1 1 0.000000 23.343143 -0.165939 -23.299774 # A 
46 1 1 0.000000 23.552691 -0.011319 -22.393723 # A 
47 1 1 0.000000 23.868656 0.751267 -22.759941 # A 
48 1 1 0.000000 23.682800 0.847679 -23.668722 # A 
49 1 1 0.000000 23.528776 1.261104 -24.634945 # A 
50 1 1 0.000000 23.528410 1.476633 -25.685728 # A 
51 1 1 0.000000 23.211786 1.701026 -26.568344 # A 
52 1 1 0.000000 22.817898 1.429629 -27.490166 # A 
53 1 1 0.000000 22.832178 1.861817 -28.297020 # A 
54 1 1 0.000000 22.796007 1.573544 -29.193727 # A 
55 1 1 0.000000 23.367884 0.895799 -29.635107 # A 
56 1 1 0.000000 22.668081 0.480226 -29.205877 # A 
57 1 1 0.000000 23.305563 0.922263 -28.455099 # A 
58 1 1 0.000000 23.843815 1.628498 -28.861341 # A 
59 1 1 0.000000 23.838800 1.666829 -27.865913 # A 
60 1 1 0.000000 23.306278 2.462998 -27.473581 # A 
61 1 1 0.000000 22.473135 2.613560 -27.561890 # A 
62 1 1 0.000000 22.159769 2.117519 -26.854649 # A 
63 1 1 0.000000 21.364101 2.552948 -27.305609 # A 
64 1 1 0.000000 21.794878 1.771240 -27.874134 # A 
65 1 1 0.000000 22.185711 0.975603 -28.352276 # A 
66 1 1 0.000000 22.597849 0.166569 -28.111086 # A 
67 1 1 0.000000 23.276609 -0.250977 -28.749363 # A 
68 1 1 0.000000 22.288807 -0.556108 -28.895985 # A 
69 1 1 0.000000 21.564587 -0.995845 -28.431067 # A 
70 1 1 0.000000 21.451204 -1.590936 -27.641907 # A 
71 1 1 0.000000 21.378483 -0.833017 -27.090965 # A 
72 1 1 0.000000 20.774841 -1.675983 -26.766197 # A 
73 1 1 0.000000 20.277197 -1.935167 -27.617996 # A 
74 1 1 0.000000 20.357491 -1.025898 -27.516003 # A 
75 1 1 0.000000 19.448980 -0.640324 -27.308773 # A 
76 1 1 0.000000 19.482523 -1.093053 -28.157772 # A 
77 1 1 0.000000 19.519865 -1.073330 -28.986786 # A 
78 1 1 0.000000 19.644690 -1.879182 -29.509323 # A 
79 1 1 0.000000 20.004293 -2.053024 -28.652287 # A 
80 1 1 0.000000 20.633703 -1.439928 -28.540609 # A 
81 1 1 0.000000 20.569201 -1.227033 -29.269524 # A 
82 1 1 0.000000 21.443521 -1.732702 -29.272165 # A 
83 1 1 0.000000 20.718073 -2.332199 -29.479710 # A 
84 1 1 0.000000 21.525978 -2.318806 -30.344952 # A 
85 1 1 0.000000 20.709269 -2.861894 -30.437389 # A 
86 1 1 0.000000 20.631001 -3.363158 -31.339392 # A 
87 1 1 0.000000 21.123541 -4.273462 -31.200499 # A 
88 1 1 0.000000 21.583553 -3.525028 -31.914764 # A 
89 1 1 0.000000 21.617586 -3.313394 -30.868626 # A 
90 1 1 0.000000 22.234766 -4.181587 -31.296438 # A 
91 1 1 0.000000 22.861225 -4.225150 -31.943628 # A 
92 1 1 0.000000 23.161093 -4.797659 -31.156290 # A 
93 1 1 0.000000 23.515160 -4.861465 -30.272791 # A 
94 1 1 0.000000 24.133617 -5.475488 -29.651072 # A 
95 1 1 0.000000 23.710791 -5.902689 -28.901142 # A 
96 1 1 0.000000 23.995525 -6.593665 -28.250408 # A 
97 1 1 0.000000 24.152090 -6.914257 -29.171438 # A 
98 1 1 0.000000 23.879137 -6.501329 -30.062447 # A 
99 1 1 0.000000 24.327496 -7.338717 -30.596931 # A 
100 1 1 0.000000 24.899471 -8.029161 -31.162939 # A 
101 1 1 0.000000 24.727755 -8.475157 -32.080704 # A 
102 1 1 0.000000 25.298325 -9.267716 -32.119404 # A 
103 1 1 0.000000 25.642260 -8.675424 -31.426636 # A 
104 1 1 0.000000 25.946289 -8.000632 -30.760704 # A 
105 1 1 0.000000 26.263256 -8.733612 -30.103615 # A 
106 1 1 0.000000 25.265303 -8.774981 -30.384171 # A 
107 1 1 0.000000 25.456612 -8.500841 -29.403006 # A 
108 1 1 0.000000 24.952192 -8.852670 -28.656460 # A 
109 1 1 0.000000 24.425354 -9.243343 -27.919153 # A 
110 1 1 0.000000 25.148153 -8.642813 -27.551563 # A 
111 1 1 0.000000 25.878105 -8.380970 -28.224680 # A 
112 1 1 0.000000 26.641886 -7.822062 -27.942085 # A 
113 1 1 0.000000 26.667624 -7.392520 -28.909771 # A 
114 1 1 0.000000 26.691069 -6.769537 -29.821238 # A 
115 1 1 0.000000 26.800711 -6.220020 -30.683174 # A 
116 1 1 0.000000 26.616711 -5.245911 -30.865793 # A 
117 1 1 0.000000 26.246902 -5.449017 -31.718801 # A 
118 1 1 0.000000 26.024347 -6.071229 -32.326591 # A 
119 1 1 0.000000 26.350658 -6.984531 -31.940722 # A 
120 1 1 0.000000 26.974154 -6.301240 -31.808481 # A 
121 1 1 0.000000 27.562347 -5.635249 -31.354715 # A 
122 1 1 0.000000 27.155638 -4.801029 -31.724724 # A 
123 1 1 0.000000 26.966064 -4.045093 -32.246265 # A 
124 1 1 0.000000 26.745283 -3.726090 -33.225895 # A 
125 1 1 0.000000 26.069599 -3.397438 -32.576195 # A 
126 1 1 0.000000 26.127283 -2.827930 -33.408356 # A 
127 1 1 0.000000 25.272537 -2.690247 -32.842159 # A 
128 1 1 0.000000 24.924528 -3.588340 -32.687126 # A 
129 1 1 0.000000 24.461468 -4.333837 -33.146130 # A 
130 1 1 0.000000 23.700867 -4.338737 -32.641132 # A 
131 1 1 0.000000 23.522192 -4.481904 -33.666199 # A 
132 1 1 0.000000 23.971729 -3.757424 -34.322342 # A 
133 1 1 0.000000 24.567297 -4.496130 -34.146694 # A 
134 1 1 0.000000 25.287546 -4.988467 -33.740776 # A 
135 1 1 0.000000 25.066175 -5.458580 -34.471737 # A 
136 1 1 0.000000 25.241888 -6.372913 -33.940536 # A 
137 1 1 0.000000 25.159096 -6.472311 -34.993679 # A 
138 1 1 0.000000 24.512007 -7.093860 -34.396729 # A 
139 1 1 0.000000 24.171917 -6.088017 -34.214535 # A 
140 1 1 0.000000 23.695097 -6.311985 -33.297272 # A 
141 1 1 0.000000 23.853260 -5.380060 -33.141972 # A 
142 1 1 0.000000 23.250099 -5.274254 -32.234177 # A 
143 1 1 0.000000 22.314110 -5.078580 -32.459751 # A 
144 1 1 0.000000 22.464451 -6.035811 -32.709118 # A 
145 1 1 0.000000 22.198744 -7.132442 -32.665920 # A 
146 1 1 0.000000 21.753160 -7.766292 -33.325706 # A 
147 1 1 0.000000 21.172205 -7.806644 -32.594982 # A 
148 1 1 0.000000 20.643789 -7.647751 -33.394009 # A 
149 1 1 0.000000 19.721478 -7.510464 -33.378208 # A 
150 1 1 0.000000 19.768793 -8.537345 -33.484718 # A 
151 1 1 0.000000 20.055216 -7.948293 -34.312527 # A 
152 1 1 0.000000 20.224777 -7.156474 -34.722008 # A 
153 1 1 0.000000 20.397425 -6.345142 -35.241390 # A 
154 1 1 0.000000 19.498421 -6.305005 -34.883522 # A 
155 1 1 0.000000 19.121143 -7.159240 -34.472198 # A 
156 1 1 0.000000 18.966183 -8.157428 -34.103813 # A 
157 1 1 0.000000 18.595758 -7.445603 -33.557381 # A 
158 1 1 0.000000 18.870716 -7.394059 -32.701740 # A 
159 1 1 0.000000 19.099405 -8.352818 -32.769379 # A 
160 1 1 0.000000 18.253839 -8.460511 -33.281101 # A 
161 1 1 0.000000 17.902914 -8.418547 -34.284760 # A 
162 1 1 0.000000 17.592403 -8.980877 -35.043530 # A 
163 1 1 0.000000 18.644110 -8.916521 -34.959591 # A 
164 1 1 0.000000 18.890493 -8.022773 -35.156948 # A 
165 1 1 0.000000 18.159960 -8.279684 -35.790714 # A 
166 1 1 0.000000 17.407381 -9.027359 -36.138309 # A 
167 1 1 0.000000 17.302406 -8.108674 -36.643124 # A 
168 1 1 0.000000 16.666605 -7.302934 -37.136559 # A 
169 1 1 0.000000 16.124176 -6.857749 -37.820286 # A 
170 1 1 0.000000 16.847925 -6.296792 -37.612396 # A 
171 1 1 0.000000 17.164518 -5.792062 -38.606976 # A 
172 1 1 0.000000 17.101688 -5.463944 -39.600079 # A 
173 1 1 0.000000 17.819775 -5.989242 -40.063648 # A 
174 1 1 0.000000 17.167175 -5.577456 -40.658211 # A 
175 1 1 0.000000 17.843622 -4.857405 -40.308987 # A 
176 1 1 0.000000 18.638004 -5.255452 -39.877754 # A 
177 1 1 0.000000 18.462749 -4.860368 -39.052547 # A 
178 1 1 0.000000 19.067398 -4.311796 -39.503349 # A 
179 1 1 0.000000 18.434702 -3.836997 -39.016670 # A 
180 1 1 0.000000 18.890953 -2.944237 -38.885235 # A 
181 1 1 0.000000 19.616083 -3.601879 -38.892422 # A 
182 1 1 0.000000 19.404364 -4.417729 -38.393326 # A 
183 1 1 0.000000 20.427507 -4.892502 -38.201355 # A 
184 1 1 0.000000 21.011995 -4.813976 -37.289936 # A 
185 1 1 0.000000 21.838627 -4.163894 -37.211857 # A 
186 1 1 0.000000 22.826679 -3.851546 -37.194317 # A 
187 1 1 0.000000 22.931301 -3.004810 -37.685257 # A 
188 1 1 0.000000 23.260340 -2.742595 -38.510727 # A 
189 1 1 0.000000 23.356916 -3.791613 -38.512714 # A 
190 1 1 0.000000 23.894156 -3.516677 -37.825890 # A 
191 1 1 0.000000 24.509314 -4.204257 -37.729683 # A 
192 1 1 0.000000 23.740274 -4.637944 -38.025150 # A 
193 1 1 0.000000 24.132870 -4.372442 -39.040226 # A 
194 1 1 0.000000 24.142689 -5.465890 -38.908318 # A 
195 1 1 0.000000 23.307316 -5.158711 -38.874702 # A 
196 1 1 0.000000 22.960997 -5.522136 -39.709972 # A 
197 1 1 0.000000 23.247972 -5.345397 -40.659401 # A 
198 1 1 0.000000 23.357040 -5.759933 -41.619320 # A 
199 1 1 0.000000 23.971079 -5.801941 -42.372684 # A 
200 1 1 0.000000 23.396202 -5.084545 -42.539787 # A 
201 1 1 0.000000 23.926554 -4.856646 -41.889252 # A 
202 1 1 0.000000 24.833549 -5.000448 -42.038322 # A 
203 1 1 0.000000 25.622126 -4.914382 -41.444019 # A 
204 1 1 0.000000 26.775991 -4.946279 -41.083572 # A 
205 1 1 0.000000 27.725872 -4.804897 -40.718700 # A 
206 1 1 0.000000 28.427198 -5.095573 -41.142796 # A 
207 1 1 0.000000 29.076954 -5.730633 -41.256115 # A 
208 1 1 0.000000 29.950567 -5.798125 -41.507713 # A 
209 1 1 0.000000 29.947746 -4.959216 -40.970337 # A 
210 1 1 0.000000 29.807720 -4.365576 -40.248619 # A 
211 1 1 0.000000 29.525198 -3.434837 -39.927174 # A 
212 1 1 0.000000 29.134691 -3.246532 -40.683342 # A 
213 1 1 0.000000 29.594591 -2.762874 -40.867508 # A 
214 1 1 0.000000 29.829195 -2.481661 -41.483261 # A 
215 1 1 0.000000 29.886513 -3.094677 -41.935032 # A 
216 1 1 0.000000 29.468884 -2.579155 -42.577282 # A 
217 1 1 0.000000 29.282818 -1.986631 -43.335342 # A 
218 1 1 0.000000 28.555412 -2.012902 -42.692440 # A 
219 1 1 0.000000 28.426790 -1.579889 -42.002518 # A 
220 1 1 0.000000 27.934181 -2.140852 -41.718468 # A 
221 1 1 0.000000 28.292805 -1.629705 -40.898167 # A 
222 1 1 0.000000 28.864225 -2.061761 -41.212135 # A 
223 1 1 0.000000 29.407370 -1.539599 -41.113213 # A 
224 1 1 0.000000 29.518232 -1.601409 -42.030609 # A 
225 1 1 0.000000 30.306353 -1.511901 -41.794048 # A 
226 1 1 0.000000 30.793041 -2.165709 -41.748581 # A 
227 1 1 0.000000 31.246998 -1.448883 -41.198700 # A 
228 1 1 0.000000 31.530279 -2.049267 -40.509865 # A 
229 1 1 0.000000 31.819248 -2.383501 -41.437305 # A 
230 1 1 0.000000 32.299770 -1.562480 -41.080315 # A 
231 1 1 0.000000 33.139267 -1.276368 -41.509686 # A 
232 1 1 0.000000 33.092064 -2.327964 -41.369072 # A 
233 1 1 0.000000 33.471973 -1.925857 -42.297432 # A 
234 1 1 0.000000 32.452377 -1.787919 -42.158909 # A 
235 1 1 0.000000 32.988960 -0.921111 -42.701385 # A 
236 1 1 0.000000 33.249954 -0.212647 -43.233788 # A 
237 1 1 0.000000 33.985428 -0.567150 -42.624050 # A 
238 1 1 0.000000 34.159325 -0.716909 -43.733688 # A 
239 1 1 0.000000 34.937820 -0.785821 -43.169491 # A 
240 1 1 0.000000 34.603836 0.152300 -43.302925 # A 
241 1 1 0.000000 34.078117 0.277132 -44.069515 # A 
242 1 1 0.000000 33.676971 0.783300 -43.397278 # A 
243 1 1 0.000000 33.968307 0.581857 -42.550385 # A 
244 1 1 0.000000 33.248913 1.071559 -42.442822 # A 
245 1 1 0.000000 32.339218 1.293944 -42.478439 # A 
246 1 1 0.000000 32.718830 1.315324 -43.367378 # A 
247 1 1 0.000000 31.665619 1.331023 -43.360085 # A 
248 1 1 0.000000 31.129406 1.185992 -44.212509 # A 
249 1 1 0.000000 30.913324 0.508757 -43.546593 # A 
250 1 1 0.000000 30.508301 0.165798 -44.483414 # A 
251 1 1 0.000000 31.250061 0.282756 -45.120373 # A 
252 1 1 0.000000 30.599796 -0.305005 -45.475048 # A 
253 1 1 0.000000 31.003656 -1.221404 -45.490768 # A 
254 1 1 0.000000 30.412508 -2.091112 -45.265884 # A 
255 1 1 0.000000 30.587824 -2.920899 -45.818245 # A 
256 1 1 0.000000 30.231899 -3.273660 -45.099670 # A 
257 1 1 0.000000 29.963678 -4.232364 -45.397640 # A 
258 1 1 0.000000 29.427534 -3.765817 -45.782284 # A 
259 1 1 0.000000 29.138426 -3.467678 -44.990082 # A 
260 1 1 0.000000 29.430441 -3.633110 -43.982967 # A 
261 1 1 0.000000 28.868473 -3.015467 -43.499302 # A 
262 1 1 0.000000 28.527060 -3.101912 -42.559887 # A 
263 1 1 0.000000 28.804674 -2.923358 -41.642948 # A 
264 1 1 0.000000 28.140890 -2.990401 -41.112617 # A 
265 1 1 0.000000 27.780415 -3.710163 -41.034203 # A 
266 1 1 0.000000 28.471712 -3.999474 -41.395103 # A 
267 1 1 0.000000 28.711746 -4.211715 -40.556358 # A 
268 1 1 0.000000 29.016678 -5.061993 -39.913677 # A 
269 1 1 0.000000 29.314203 -4.961506 -38.860645 # A 
270 1 1 0.000000 28.978065 -4.111554 -39.312420 # A 
271 1 1 0.000000 29.148403 -4.018116 -38.268074 # A 
272 1 1 0.000000 29.907310 -3.507334 -38.537949 # A 
273 1 1 0.000000 30.053581 -4.142972 -39.215012 # A 
274 1 1 0.000000 30.084993 -4.577971 -38.171574 # A 
275 1 1 0.000000 29.994493 -5.091768 -37.259968 # A 
276 1 1 0.000000 29.119797 -4.940306 -37.688297 # A 
277 1 1 0.000000 29.465631 -5.689481 -37.986778 # A 
278 1 1 0.000000 29.226044 -5.757288 -36.981396 # A 
279 1 1 0.000000 28.904032 -6.393429 -36.199680 # A 
280 1 1 0.000000 29.462152 -7.098333 -36.524193 # A 
281 1 1 0.000000 29.687973 -6.685320 -37.401802 # A 
282 1 1 0.000000 28.709230 -6.697381 -37.271904 # A 
283 1 1 0.000000 28.817825 -6.576546 -38.231907 # A 
284 1 1 0.000000 28.630711 -5.977733 -39.094196 # A 
285 1 1 0.000000 28.283169 -5.923080 -40.056461 # A 
286 1 1 0.000000 28.062784 -6.853941 -39.550274 # A 
287 1 1 0.000000 27.281158 -6.288298 -39.711998 # A 
288 1 1 0.000000 27.281162 -5.762240 -40.584438 # A 
289 1 1 0.000000 28.042011 -6.126246 -41.151615 # A 
290 1 1 0.000000 27.560219 -5.455294 -41.642563 # A 
291 1 1 0.000000 27.663132 -4.519150 -41.745602 # A 
292 1 1 0.000000 27.151049 -5.076719 -42.518139 # A 
293 1 1 0.000000 26.412188 -4.581401 -42.105320 # A 
294 1 1 0.000000 26.140455 -3.672814 -42.046875 # A 
295 1 1 0.000000 25.453705 -3.260857 -42.701313 # A 
296 1 1 0.000000 26.151527 -2.560438 -42.314270 # A 
297 1 1 0.000000 26.935434 -2.077919 -42.753113 # A 
298 1 1 0.000000 27.674166 -1.608717 -43.208611 # A 
299 1 1 0.000000 27.865797 -2.552405 -43.426945 # A 
300 1 1 0.000000 27.973207 -3.597764 -43.481106 # A 
301 1 1 0.000000 28.323586 -3.734335 -44.285980 # A 
302 1 1 0.000000 28.983730 -4.490688 -44.499607 # A 
303 1 1 0.000000 28.391434 -5.331870 -44.021973 # A 
304 1 1 0.000000 28.084669 -6.299783 -43.664268 # A 
305 1 1 0.000000 27.615396 -7.040487 -43.358814 # A 
306 1 1 0.000000 27.397993 -7.075600 -42.398903 # A 
307 1 1 0.000000 26.746143 -7.756117 -42.848595 # A 
308 1 1 0.000000 26.094662 -7.774651 -42.106926 # A 
309 1 1 0.000000 25.412817 -8.483056 -41.915642 # A 
310 1 1 0.000000 25.555916 -8.365422 -42.874912 # A 
311 1 1 0.000000 24.506113 -8.995895 -42.606026 # A 
312 1 1 0.000000 23.953516 -8.752603 -43.449043 # A 
313 1 1 0.000000 23.230267 -8.716852 -42.800327 # A 
314 1 1 0.000000 22.975670 -7.966792 -43.399612 # A 
315 1 1 0.000000 22.513700 -7.035782 -43.211937 # A 
316 1 1 0.000000 21.471441 -6.820372 -43.074123 # A 
317 1 1 0.000000 21.387547 -5.915702 -42.644405 # A 
318 1 1 0.000000 20.318382 -5.826416 -42.723335 # A 
319 1 1 0.000000 20.624359 -5.659228 -41.824490 # A 
320 1 1 0.000000 20.524107 -5.148316 -40.810055 # A 
321 1 1 0.000000 20.914930 -5.016786 -39.965679 # A 
322 1 1 0.000000 20.671558 -5.545658 -39.212036 # A 
323 1 1 0.000000 20.213242 -5.895508 -40.006733 # A 
324 1 1 0.000000 19.786085 -5.167869 -39.820797 # A 
325 1 1 0.000000 20.154587 -4.586375 -39.261520 # A 
326 1 1 0.000000 20.656651 -3.949642 -38.626259 # A 
327 1 1 0.000000 21.174339 -3.159830 -38.086754 # A 
328 1 1 0.000000 21.341557 -2.221512 -38.434055 # A 
329 1 1 0.000000 21.701101 -1.604282 -39.174946 # A 
330 1 1 0.000000 21.574877 -1.366756 -40.159595 # A 
331 1 1 0.000000 22.492910 -1.582267 -40.471928 # A 
332 1 1 0.000000 22.011166 -2.308137 -40.978844 # A 
333 1 1 0.000000 21.793383 -1.335368 -41.307766 # A 
334 1 1 0.000000 21.588568 -2.031522 -41.935509 # A 
335 1 1 0.000000 21.793982 -2.921934 -41.974174 # A 
336 1 1 0.000000 21.297979 -3.077377 -42.841316 # A 
337 1 1 0.000000 20.757204 -2.632740 -42.224453 # A 
338 1 1 0.000000 20.335978 -2.616830 -43.174034 # A 
339 1 1 0.000000 21.185265 -2.324383 -43.699730 # A 
340 1 1 0.000000 21.209885 -1.861901 -42.887478 # A 
341 1 1 0.000000 21.990833 -2.255262 -42.910015 # A 
342 1 1 0.000000 22.868792 -2.037321 -42.890018 # A 
343 1 1 0.000000 22.760086 -3.082260 -42.855312 # A 
344 1 1 0.000000 22.122484 -3.296476 -43.521172 # A 
345 1 1 0.000000 21.746859 -4.087427 -43.046902 # A 
346 1 1 0.000000 22.730852 -4.275074 -43.114437 # A 
347 1 1 0.000000 22.380436 -5.208256 -43.019638 # A 
348 1 1 0.000000 22.217093 -5.997397 -43.393597 # A 
349 1 1 0.000000 23.041552 -6.141099 -42.853634 # A 
350 1 1 0.000000 23.448662 -5.617813 -43.572510 # A 
351 1 1 0.000000 24.079622 -6.351623 -43.506363 # A 
352 1 1 0.000000 24.819120 -6.958262 -43.183575 # A 
353 1 1 0.000000 25.225168 -7.785401 -43.774586 # A 
354 1 1 0.000000 25.874506 -7.260998 -44.167244 # A 
355 1 1 0.000000 26.665052 -7.333708 -43.819508 # A 
356 1 1 0.000000 25.900620 -7.109797 -43.116776 # A 
357 1 1 0.000000 26.620317 -6.638506 -42.995495 # A 
358 1 1 0.000000 27.143419 -5.917188 -43.221241 # A 
359 1 1 0.000000 27.850145 -6.038278 -42.608303 # A 
360 1 1 0.000000 28.508043 -6.832998 -42.638737 # A 
361 1 1 0.000000 29.075214 -7.490332 -43.112114 # A 
362 1 1 0.000000 29.419979 -7.532581 -42.121609 # A 
363 1 1 0.000000 29.519928 -6.594169 -42.244602 # A 
364 1 1 0.000000 30.093468 -7.090952 -42.868240 # A 
365 1 1 0.000000 31.046438 -6.946605 -42.727535 # A 
366 1 1 0.000000 30.712593 -6.614056 -43.653915 # A 
367 1 1 0.000000 30.407652 -7.048012 -44.507164 # A 
368 1 1 0.000000 31.002960 -6.273753 -44.729706 # A 
369 1 1 0.000000 31.006701 -6.045704 -45.773659 # A 
370 1 1 0.000000 31.158449 -6.091205 -46.761925 # A 
371 1 1 0.000000 30.567200 -5.178270 -46.588459 # A 
372 1 1 0.000000 29.607384 -4.856536 -46.494465 # A 
373 1 1 0.000000 29.289482 -3.959056 -46.788517 # A 
374 1 1 0.000000 29.323011 -3.857550 -47.772530 # A 
375 1 1 0.000000 29.812870 -4.771670 -47.579742 # A 
376 1 1 0.000000 30.299383 -4.159628 -47.253304 # A 
377 1 1 0.000000 30.351574 -3.973699 -46.368378 # A 
378 1 1 0.000000 30.666515 -3.201922 -46.894413 # A 
379 1 1 0.000000 29.812510 -2.972964 -46.526737 # A 
380 1 1 0.000000 29.471153 -2.627489 -45.643116 # A 
381 1 1 0.000000 29.546158 -1.952554 -46.019615 # A 
382 1 1 0.000000 29.944954 -1.161480 -45.705322 # A 
383 1 1 0.000000 29.540909 -1.474347 -44.935680 # A 
384 1 1 0.000000 30.376272 -1.090584 -44.614933 # A 
385 1 1 0.000000 29.712011 -0.684796 -43.995327 # A 
386 1 1 0.000000 29.647665 -0.289524 -44.895893 # A 
387 1 1 0.000000 28.784927 -0.281509 -44.469349 # A 
388 1 1 0.000000 28.922342 0.093924 -43.611221 # A 
389 1 1 0.000000 28.051826 0.654278 -43.872879 # A 
390 1 1 0.000000 28.065157 1.169390 -44.871601 # A 
391 1 1 0.000000 28.356833 1.627460 -45.818600 # A 
392 1 1 0.000000 27.351078 1.594067 -45.641571 # A 
393 1 1 0.000000 26.868555 1.613716 -46.557423 # A 
394 1 1 0.000000 26.178392 1.992184 -47.151672 # A 
395 1 1 0.000000 26.864002 2.666250 -46.990372 # A 
396 1 1 0.000000 27.646400 2.403594 -46.371189 # A 
397 1 1 0.000000 26.711849 2.489019 -45.910114 # A 
398 1 1 0.000000 25.929863 2.818356 -46.394283 # A 
399 1 1 0.000000 25.409941 2.769258 -45.676949 # A 
400 1 1 0.000000 24.763742 3.451194 -45.575794 # A 
401 1 1 0.000000 24.879614 3.085761 -44.698082 # A 
402 1 1 0.000000 24.151878 2.643623 -45.190140 # A 
403 1 1 0.000000 24.401516 2.378340 -45.929417 # A 
404 1 1 0.000000 24.288330 1.867381 -46.774326 # A 
405 1 1 0.000000 25.104273 2.288296 -46.779812 # A 
406 1 1 0.000000 24.940592 1.314579 -47.494366 # A 
407 1 1 0.000000 24.846209 1.445949 -48.515804 # A 
408 1 1 0.000000 25.616508 1.759807 -48.146301 # A 
409 1 1 0.000000 25.284094 2.524735 -48.664257 # A 
410 1 1 0.000000 25.424412 2.803848 -47.680676 # A 
411 1 1 0.000000 24.586376 2.278899 -47.781143 # A 
412 1 1 0.000000 24.057472 2.997611 -47.638023 # A 
413 1 1 0.000000 24.328974 3.031239 -48.635029 # A 
414 1 1 0.000000 24.370180 2.252388 -49.192665 # A 
415 1 1 0.000000 25.013477 2.559892 -49.892502 # A 
416 1 1 0.000000 25.053823 2.135741 -50.824387 # A 
417 1 1 0.000000 24.080906 1.779922 -51.058929 # A 
418 1 1 0.000000 23.900312 1.085057 -50.323753 # A 
419 1 1 0.000000 24.484360 1.625590 -50.094723 # A 
420 1 1 0.000000 24.601358 1.029821 -49.511478 # A 
421 1 1 0.000000 25.365925 1.649603 -49.507633 # A 
422 1 1 0.000000 26.226059 1.999629 -49.097534 # A 
423 1 1 0.000000 25.850166 0.967429 -48.945869 # A 
424 1 1 0.000000 26.450689 1.220108 -49.781918 # A 
425 1 1 0.000000 26.504429 0.542376 -50.477077 # A 
426 1 1 0.000000 26.553408 -0.255213 -50.983856 # A 
427 1 1 0.000000 26.400251 0.600950 -51.594929 # A 
428 1 1 0.000000 26.815598 1.222905 -52.251396 # A 
429 1 1 0.000000 26.561016 1.669569 -51.376472 # A 
430 1 1 0.000000 25.865601 1.444527 -50.701241 # A 
431 1 1 0.000000 25.453968 0.732181 -50.131218 # A 
432 1 1 0.000000 24.911173 0.979027 -50.820656 # A 
433 1 1 0.000000 24.893490 1.269260 -51.556843 # A 
434 1 1 0.000000 25.482082 1.889167 -51.812355 # A 
435 1 1 0.000000 25.121477 2.632836 -52.384018 # A 
436 1 1 0.000000 24.534302 2.645449 -53.223938 # A 
437 1 1 0.000000 25.404358 2.113569 -53.308979 # A 
438 1 1 0.000000 26.170874 1.450000 -53.736492 # A 
439 1 1 0.000000 26.472002 0.936818 -54.496346 # A 
440 1 1 0.000000 25.860344 1.268553 -54.973156 # A 
441 1 1 0.000000 26.573523 1.998056 -54.763927 # A 
442 1 1 0.000000 27.094872 2.372156 -55.337059 # A 
443 1 1 0.000000 27.766951 2.777932 -55.912472 # A 
444 1 1 0.000000 28.262020 2.618517 -56.922379 # A 
445 1 1 0.000000 29.015564 2.393291 -57.382244 # A 
446 1 1 0.000000 29.267267 3.097667 -56.952808 # A 
447 1 1 0.000000 28.901524 3.477158 -57.758278 # A 
448 1 1 0.000000 29.781321 2.965583 -57.998272 # A 
449 1 1 0.000000 30.026188 3.734591 -57.437332 # A 
450 1 1 0.000000 30.385368 4.417100 -56.832390 # A 
451 1 1 0.000000 29.671329 4.943449 -56.340080 # A 
452 1 1 0.000000 29.283632 4.197420 -56.778049 # A 
453 1 1 0.000000 28.529661 4.561627 -56.393311 # A 
454 1 1 0.000000 28.389521 3.537949 -56.399380 # A 
455 1 1 0.000000 27.825745 3.850764 -55.841896 # A 
456 1 1 0.000000 27.046711 3.505217 -55.336452 # A 
457 1 1 0.000000 26.305023 3.021110 -55.693626 # A 
458 1 1 0.000000 26.264244 3.051695 -54.702450 # A 
459 1 1 0.000000 26.330528 2.578591 -53.850285 # A 
460 1 1 0.000000 27.001270 2.973198 -53.301575 # A 
461 1 1 0.000000 27.572529 3.753439 -52.680202 # A 
462 1 1 0.000000 27.346130 4.370994 -51.848301 # A 
463 1 1 0.000000 27.157721 5.486418 -51.731911 # A 
464 1 1 0.000000 27.591137 5.120025 -52.541862 # A 
465 1 1 0.000000 27.352049 4.583976 -53.410671 # A 
466 1 1 0.000000 27.559546 3.759789 -53.862442 # A 
467 1 1 0.000000 27.278044 2.968447 -54.352989 # A 
468 1 1 0.000000 27.814816 2.475433 -53.802071 # A 
469 1 1 0.000000 28.197062 3.035935 -53.159161 # A 
470 1 1 0.000000 28.908396 2.245322 -53.290180 # A 
471 1 1 0.000000 27.984509 1.996221 -52.821629 # A 
472 1 1 0.000000 28.767090 1.837407 -52.250443 # A 
473 1 1 0.000000 28.758867 1.178854 -52.977783 # A 
474 1 1 0.000000 28.473133 0.365973 -53.523983 # A 
475 1 1 0.000000 27.930622 -0.295610 -54.080868 # A 
476 1 1 0.000000 27.145094 0.118772 -54.326626 # A 
477 1 1 0.000000 27.385658 -0.452890 -55.028721 # A 
478 1 1 0.000000 26.867151 -0.323808 -55.913403 # A 
479 1 1 0.000000 26.729233 -0.257073 -56.944061 # A 
480 1 1 0.000000 26.890957 0.660216 -57.396519 # A 
481 1 1 0.000000 27.393621 1.470782 -57.834839 # A 
482 1 1 0.000000 28.017681 2.220400 -57.892601 # A 
483 1 1 0.000000 28.800413 2.593671 -58.485611 # A 
484 1 1 0.000000 27.863501 2.478985 -58.936565 # A 
485 1 1 0.000000 26.873337 2.740170 -59.303631 # A 
486 1 1 0.000000 26.033094 2.648899 -59.824181 # A 
487 1 1 0.000000 25.287071 2.406976 -59.226070 # A 
488 1 1 0.000000 25.218319 3.368228 -59.486507 # A 
489 1 1 0.000000 25.975996 3.258493 -58.910976 # A 
490 1 1 0.000000 25.175686 3.095159 -58.376106 # A 
491 1 1 0.000000 24.643524 2.932724 -57.519096 # A 
492 1 1 0.000000 23.892237 2.409204 -57.007545 # A 
493 1 1 0.000000 23.252037 2.468662 -56.442482 # A 
494 1 1 0.000000 23.628784 3.017503 -56.081554 # A 
495 1 1 0.000000 24.486002 3.163029 -56.445175 # A 
496 1 1 0.000000 25.296869 3.509781 -56.013378 # A 
497 1 1 0.000000 25.331413 3.316136 -55.140102 # A 
498 1 1 0.000000 24.421307 3.080488 -55.366085 # A 
499 1 1 0.000000 24.559317 2.578593 -54.738564 # A 
500 1 1 0.000000 25.219940 2.932687 -54.112606 # A 
501 1 1 0.000000 25.506599 2.176204 -54.427265 # A 
502 1 1 0.000000 25.592852 2.279741 -55.262936 # A 
503 1 1 0.000000 25.093071 2.421561 -55.873402 # A 
504 1 1 0.000000 24.305019 2.164240 -55.990040 # A 
505 1 1 0.000000 23.736618 2.186243 -55.411575 # A 
506 1 1 0.000000 24.712204 1.589708 -55.150593 # A 
507 1 1 0.000000 23.942919 1.101427 -55.496563 # A 
508 1 1 0.000000 23.528206 1.417570 -56.237919 # A 
509 1 1 0.000000 22.994097 0.726906 -55.881542 # A 
510 1 1 0.000000 22.419157 1.167484 -56.520561 # A 
511 1 1 0.000000 22.535217 1.753958 -55.851315 # A 
512 1 1 0.000000 21.525434 1.814927 -56.253880 # A 
513 1 1 0.000000 20.830935 2.382619 -56.778595 # A 
514 1 1 0.000000 21.065062 3.248324 -56.438416 # A 
515 1 1 0.000000 21.501030 3.978488 -56.980381 # A 
516 1 1 0.000000 21.124416 4.582293 -56.220341 # A 
517 1 1 0.000000 20.866032 4.887815 -57.072117 # A 
518 1 1 0.000000 20.464907 5.516038 -56.520916 # A 
519 1 1 0.000000 19.792587 4.932707 -56.903896 # A 
520 1 1 0.000000 19.301380 3.945038 -56.777782 # A 
521 1 1 0.000000 19.833151 4.205116 -56.059570 # A 
522 1 1 0.000000 20.365057 3.990865 -56.804028 # A 
523 1 1 0.000000 20.099297 3.226101 -57.051109 # A 
524 1 1 0.000000 19.219681 2.700998 -57.142082 # A 
525 1 1 0.000000 19.924582 2.513732 -57.931660 # A 
526 1 1 0.000000 19.424610 2.478027 -58.847691 # A 
527 1 1 0.000000 19.608728 3.317329 -59.361168 # A 
528 1 1 0.000000 20.041651 3.686670 -60.194008 # A 
529 1 1 0.000000 19.649832 4.374522 -59.653458 # A 
530 1 1 0.000000 18.974239 3.947745 -60.263386 # A 
531 1 1 0.000000 19.185883 3.772062 -61.206226 # A 
532 1 1 0.000000 18.841421 4.427989 -61.944004 # A 
533 1 1 0.000000 18.748693 4.233938 -62.899654 # A 
534 1 1 0.000000 19.171698 5.144201 -62.899315 # A 
535 1 1 0.000000 19.570660 4.805586 -63.718826 # A 
536 1 1 0.000000 19.751797 4.028418 -63.192184 # A 
537 1 1 0.000000 20.408686 3.391688 -63.531567 # A 
538 1 1 0.000000 19.516071 2.937040 -63.174351 # A 
539 1 1 0.000000 20.050301 3.367281 -62.415665 # A 
540 1 1 0.000000 19.184059 3.429393 -62.306641 # A 
541 1 1 0.000000 18.238886 3.400517 -62.508030 # A 
542 1 1 0.000000 17.606279 3.159361 -61.887650 # A 
543 1 1 0.000000 16.813953 2.745558 -61.633816 # A 
544 1 1 0.000000 16.119963 2.955251 -62.346699 # A 
545 1 1 0.000000 16.074200 3.705557 -62.749081 # A 
546 1 1 0.000000 16.726366 3.823731 -61.867603 # A 
547 1 1 0.000000 16.019968 3.415278 -61.261440 # A 
548 1 1 0.000000 15.464972 3.596059 -60.554405 # A 
549 1 1 0.000000 15.356559 2.746891 -60.742939 # A 
550 1 1 0.000000 16.027554 2.764093 -60.027626 # A 
551 1 1 0.000000 15.060534 3.059029 -59.676041 # A 
552 1 1 0.000000 15.675484 2.870635 -59.021847 # A 
553 1 1 0.000000 15.913118 3.776244 -59.572697 # A 
554 1 1 0.000000 15.778369 4.579942 -60.175823 # A 
555 1 1 0.000000 16.235521 5.195628 -59.643410 # A 
556 1 1 0.000000 16.724075 5.844862 -60.245754 # A 
557 1 1 0.000000 16.051889 5.375174 -60.778496 # A 
558 1 1 0.000000 15.645920 6.252893 -60.767647 # A 
559 1 1 0.000000 14.902105 6.669782 -61.318409 # A 
560 1 1 0.000000 14.817446 6.981843 -60.445816 # A 
561 1 1 0.000000 13.926826 6.999342 -60.780178 # A 
562 1 1 0.000000 14.237667 6.092211 -60.665035 # A 
563 1 1 0.000000 14.444553 6.159478 -59.781582 # A 