LAMMPS data file. CGCMM style. atom_style full generated by VMD/TopoTools v1.7 on Mon Aug 06 12:07:53 EDT 2018
 24000 atoms
 23999 bonds
 23998 angles
 0 dihedrals
 0 impropers
 1 atom types
 1 bond types
 1 angle types
 0 dihedral types
 0 improper types
 -25.770000 25.957001  xlo xhi
 -25.562000 26.013001  ylo yhi
 -25.152500 24.861500  zlo zhi

# Pair Coeffs
#
# 1  A

# Bond Coeffs
#
# 1  

# Angle Coeffs
#
# 1  A-A-A

 Masses

 1 1.000000 # A

 Atoms # full

1 1 1 0.000000 -14.621000 -16.840000 0.087000 # A 
2 1 1 0.000000 -16.503000 -15.796000 -0.156000 # A 
3 1 1 0.000000 -15.403000 -14.219000 0.038000 # A 
4 1 1 0.000000 -15.727000 -16.045000 0.162000 # A 
5 1 1 0.000000 -15.631000 -14.358000 1.125000 # A 
6 1 1 0.000000 -16.889999 -14.919000 2.710000 # A 
7 1 1 0.000000 -18.106001 -15.770000 3.734000 # A 
8 1 1 0.000000 -17.496000 -16.941999 4.888000 # A 
9 1 1 0.000000 -18.202000 -15.104000 5.633000 # A 
10 1 1 0.000000 -18.726000 -13.691000 4.590000 # A 
11 1 1 0.000000 -18.114000 -12.098000 3.365000 # A 
12 1 1 0.000000 -19.767000 -12.709000 2.840000 # A 
13 1 1 0.000000 -20.983000 -11.099000 3.585000 # A 
14 1 1 0.000000 -19.233000 -11.750000 3.164000 # A 
15 1 1 0.000000 -17.645000 -12.904000 3.868000 # A 
16 1 1 0.000000 -16.427999 -14.194000 4.534000 # A 
17 1 1 0.000000 -15.921000 -12.633000 3.836000 # A 
18 1 1 0.000000 -16.716000 -10.981000 4.407000 # A 
19 1 1 0.000000 -18.493000 -10.582000 3.924000 # A 
20 1 1 0.000000 -18.756001 -11.793000 5.452000 # A 
21 1 1 0.000000 -19.986000 -10.609000 4.656000 # A 
22 1 1 0.000000 -18.495001 -10.546000 5.578000 # A 
23 1 1 0.000000 -17.431999 -9.768000 3.895000 # A 
24 1 1 0.000000 -16.103001 -8.817000 4.897000 # A 
25 1 1 0.000000 -16.628000 -10.205000 3.688000 # A 
26 1 1 0.000000 -16.900000 -12.236000 3.361000 # A 
27 1 1 0.000000 -17.455000 -14.077000 3.234000 # A 
28 1 1 0.000000 -17.021999 -12.639000 2.056000 # A 
29 1 1 0.000000 -16.094000 -11.554000 0.814000 # A 
30 1 1 0.000000 -16.280001 -9.661000 0.897000 # A 
31 1 1 0.000000 -14.740000 -8.925000 0.488000 # A 
32 1 1 0.000000 -16.459000 -8.514000 -0.299000 # A 
33 1 1 0.000000 -15.308000 -6.836000 0.101000 # A 
34 1 1 0.000000 -16.104000 -8.332000 -1.055000 # A 
35 1 1 0.000000 -15.987000 -7.191000 0.564000 # A 
36 1 1 0.000000 -15.852000 -6.663000 2.465000 # A 
37 1 1 0.000000 -17.742001 -7.265000 2.856000 # A 
38 1 1 0.000000 -17.334999 -8.780000 3.525000 # A 
39 1 1 0.000000 -17.540001 -7.426000 2.085000 # A 
40 1 1 0.000000 -15.838000 -8.113000 3.192000 # A 
41 1 1 0.000000 -15.239000 -9.995000 2.572000 # A 
42 1 1 0.000000 -15.899000 -8.290000 2.971000 # A 
43 1 1 0.000000 -16.250999 -10.367000 2.735000 # A 
44 1 1 0.000000 -15.420000 -8.625000 2.116000 # A 
45 1 1 0.000000 -15.762000 -9.210000 3.948000 # A 
46 1 1 0.000000 -15.050000 -7.267000 3.513000 # A 
47 1 1 0.000000 -15.680000 -6.107000 4.934000 # A 
48 1 1 0.000000 -14.756000 -5.135000 3.681000 # A 
49 1 1 0.000000 -16.493999 -5.737000 2.537000 # A 
50 1 1 0.000000 -15.161000 -4.174000 2.560000 # A 
51 1 1 0.000000 -15.993000 -5.776000 3.383000 # A 
52 1 1 0.000000 -15.703000 -4.324000 2.384000 # A 
53 1 1 0.000000 -16.826000 -5.724000 1.342000 # A 
54 1 1 0.000000 -15.086000 -5.428000 2.288000 # A 
55 1 1 0.000000 -15.079000 -3.989000 0.723000 # A 
56 1 1 0.000000 -14.426000 -5.199000 2.151000 # A 
57 1 1 0.000000 -15.142000 -4.475000 0.366000 # A 
58 1 1 0.000000 -16.202999 -3.107000 1.437000 # A 
59 1 1 0.000000 -17.051001 -4.393000 2.477000 # A 
60 1 1 0.000000 -15.653000 -3.205000 1.492000 # A 
61 1 1 0.000000 -16.665001 -3.862000 3.273000 # A 
62 1 1 0.000000 -17.638000 -2.692000 2.298000 # A 
63 1 1 0.000000 -18.874001 -3.864000 2.673000 # A 
64 1 1 0.000000 -18.556000 -5.653000 3.141000 # A 
65 1 1 0.000000 -19.402000 -3.964000 3.607000 # A 
66 1 1 0.000000 -20.333000 -5.967000 3.356000 # A 
67 1 1 0.000000 -20.804001 -4.012000 3.612000 # A 
68 1 1 0.000000 -19.410999 -5.034000 2.756000 # A 
69 1 1 0.000000 -21.368999 -5.281000 2.979000 # A 
70 1 1 0.000000 -20.789000 -6.710000 1.790000 # A 
71 1 1 0.000000 -21.767000 -5.215000 2.666000 # A 
72 1 1 0.000000 -20.583000 -6.122000 1.945000 # A 
73 1 1 0.000000 -19.905001 -7.646000 1.039000 # A 
74 1 1 0.000000 -18.084999 -6.908000 0.091000 # A 
75 1 1 0.000000 -19.524000 -6.743000 1.492000 # A 
76 1 1 0.000000 -19.391001 -5.734000 -0.334000 # A 
77 1 1 0.000000 -21.132000 -5.463000 -0.888000 # A 
78 1 1 0.000000 -19.358999 -4.838000 0.015000 # A 
79 1 1 0.000000 -20.337000 -5.855000 -1.539000 # A 
80 1 1 0.000000 -21.867001 -6.725000 -2.219000 # A 
81 1 1 0.000000 -20.427000 -5.416000 -2.352000 # A 
82 1 1 0.000000 -20.077000 -7.484000 -2.609000 # A 
83 1 1 0.000000 -18.427999 -7.650000 -1.456000 # A 
84 1 1 0.000000 -18.823999 -8.868000 -0.190000 # A 
85 1 1 0.000000 -16.785999 -8.084000 0.711000 # A 
86 1 1 0.000000 -14.947000 -6.824000 1.136000 # A 
87 1 1 0.000000 -16.743999 -6.900000 1.585000 # A 
88 1 1 0.000000 -14.844000 -6.050000 1.133000 # A 
89 1 1 0.000000 -14.572000 -5.756000 -0.519000 # A 
90 1 1 0.000000 -14.011000 -6.391000 1.595000 # A 
91 1 1 0.000000 -14.689000 -8.232000 1.501000 # A 
92 1 1 0.000000 -13.566000 -9.977000 2.114000 # A 
93 1 1 0.000000 -11.517000 -9.648000 2.164000 # A 
94 1 1 0.000000 -13.292000 -10.290000 1.448000 # A 
95 1 1 0.000000 -11.756000 -10.847000 2.709000 # A 
96 1 1 0.000000 -12.956000 -12.160000 3.327000 # A 
97 1 1 0.000000 -13.915000 -12.214000 5.069000 # A 
98 1 1 0.000000 -13.891000 -13.887000 5.554000 # A 
99 1 1 0.000000 -13.770000 -14.729000 3.665000 # A 
100 1 1 0.000000 -15.523000 -13.839000 3.366000 # A 
101 1 1 0.000000 -14.497000 -15.422000 4.378000 # A 
102 1 1 0.000000 -12.978000 -14.106000 3.936000 # A 
103 1 1 0.000000 -14.569000 -14.925000 2.918000 # A 
104 1 1 0.000000 -12.640000 -14.778000 3.751000 # A 
105 1 1 0.000000 -13.537000 -15.428000 2.045000 # A 
106 1 1 0.000000 -15.599000 -15.459000 1.506000 # A 
107 1 1 0.000000 -16.270000 -17.150999 0.959000 # A 
108 1 1 0.000000 -16.664000 -15.476000 1.720000 # A 
109 1 1 0.000000 -18.792999 -15.553000 1.769000 # A 
110 1 1 0.000000 -18.493000 -13.697000 0.944000 # A 
111 1 1 0.000000 -16.559999 -13.503000 0.422000 # A 
112 1 1 0.000000 -16.302999 -12.110000 1.789000 # A 
113 1 1 0.000000 -14.677000 -10.871000 1.357000 # A 
114 1 1 0.000000 -15.472000 -12.954000 1.639000 # A 
115 1 1 0.000000 -14.003000 -14.128000 0.932000 # A 
116 1 1 0.000000 -15.780000 -13.367000 1.579000 # A 
117 1 1 0.000000 -15.260000 -13.082000 -0.339000 # A 
118 1 1 0.000000 -13.276000 -13.677000 -0.979000 # A 
119 1 1 0.000000 -11.808000 -14.826000 -0.159000 # A 
120 1 1 0.000000 -11.427000 -13.801000 -1.840000 # A 
121 1 1 0.000000 -11.184000 -13.736000 0.309000 # A 
122 1 1 0.000000 -11.038000 -14.730000 2.321000 # A 
123 1 1 0.000000 -11.992000 -13.928000 0.501000 # A 
124 1 1 0.000000 -10.169000 -13.708000 0.777000 # A 
125 1 1 0.000000 -8.483000 -12.895000 -0.321000 # A 
126 1 1 0.000000 -10.234000 -13.237000 -1.580000 # A 
127 1 1 0.000000 -11.514000 -14.475000 -2.597000 # A 
128 1 1 0.000000 -10.593000 -15.832000 -1.743000 # A 
129 1 1 0.000000 -9.894000 -14.263000 -2.002000 # A 
130 1 1 0.000000 -11.004000 -15.514000 -3.146000 # A 
131 1 1 0.000000 -11.497000 -16.447001 -1.350000 # A 
132 1 1 0.000000 -12.076000 -18.131001 -0.874000 # A 
133 1 1 0.000000 -13.445000 -17.382000 -0.238000 # A 
134 1 1 0.000000 -13.681000 -17.542000 -2.154000 # A 
135 1 1 0.000000 -12.765000 -18.587000 -2.918000 # A 
136 1 1 0.000000 -13.723000 -17.347000 -1.585000 # A 
137 1 1 0.000000 -12.565000 -18.412001 -2.684000 # A 
138 1 1 0.000000 -11.339000 -18.518999 -4.185000 # A 
139 1 1 0.000000 -13.268000 -18.535999 -4.627000 # A 
140 1 1 0.000000 -14.398000 -17.879999 -6.176000 # A 
141 1 1 0.000000 -13.958000 -17.191999 -4.190000 # A 
142 1 1 0.000000 -14.413000 -16.344000 -2.806000 # A 
143 1 1 0.000000 -15.705000 -15.519000 -3.817000 # A 
144 1 1 0.000000 -17.377001 -15.742000 -2.442000 # A 
145 1 1 0.000000 -17.329000 -17.822001 -3.082000 # A 
146 1 1 0.000000 -16.754000 -19.878000 -2.825000 # A 
147 1 1 0.000000 -17.813999 -18.212000 -2.132000 # A 
148 1 1 0.000000 -16.546000 -16.850000 -2.277000 # A 
149 1 1 0.000000 -14.785000 -17.434999 -3.386000 # A 
150 1 1 0.000000 -14.844000 -16.573999 -1.452000 # A 
151 1 1 0.000000 -14.829000 -15.402000 0.178000 # A 
152 1 1 0.000000 -16.500000 -14.611000 -0.691000 # A 
153 1 1 0.000000 -17.768000 -14.222000 -1.823000 # A 
154 1 1 0.000000 -15.832000 -13.993000 -0.973000 # A 
155 1 1 0.000000 -16.989000 -12.628000 -2.133000 # A 
156 1 1 0.000000 -16.490000 -10.650000 -1.758000 # A 
157 1 1 0.000000 -18.023001 -11.528000 -1.708000 # A 
158 1 1 0.000000 -18.037001 -11.491000 0.454000 # A 
159 1 1 0.000000 -17.469000 -11.039000 -1.275000 # A 
160 1 1 0.000000 -18.145000 -12.306000 -0.028000 # A 
161 1 1 0.000000 -19.521000 -12.991000 -1.087000 # A 
162 1 1 0.000000 -20.403000 -12.820000 0.686000 # A 
163 1 1 0.000000 -20.596001 -10.881000 1.290000 # A 
164 1 1 0.000000 -18.950001 -9.735000 1.039000 # A 
165 1 1 0.000000 -18.997999 -9.894000 3.074000 # A 
166 1 1 0.000000 -17.764000 -10.531000 1.629000 # A 
167 1 1 0.000000 -17.438999 -12.407000 0.774000 # A 
168 1 1 0.000000 -18.726000 -11.117000 -0.449000 # A 
169 1 1 0.000000 -18.674999 -12.049000 1.501000 # A 
170 1 1 0.000000 -19.089001 -10.497000 2.260000 # A 
171 1 1 0.000000 -19.309000 -8.672000 2.812000 # A 
172 1 1 0.000000 -19.393000 -8.697000 0.992000 # A 
173 1 1 0.000000 -18.181999 -8.752000 2.360000 # A 
174 1 1 0.000000 -17.868999 -8.490000 0.442000 # A 
175 1 1 0.000000 -16.900999 -7.637000 -0.640000 # A 
176 1 1 0.000000 -18.914000 -7.786000 -0.509000 # A 
177 1 1 0.000000 -17.833000 -9.062000 -0.406000 # A 
178 1 1 0.000000 -18.084999 -9.043000 -2.608000 # A 
179 1 1 0.000000 -16.500000 -9.653000 -2.258000 # A 
180 1 1 0.000000 -15.123000 -9.147000 -3.694000 # A 
181 1 1 0.000000 -16.004999 -7.643000 -3.820000 # A 
182 1 1 0.000000 -14.505000 -6.214000 -4.078000 # A 
183 1 1 0.000000 -13.396000 -6.436000 -5.493000 # A 
184 1 1 0.000000 -13.255000 -8.276000 -6.510000 # A 
185 1 1 0.000000 -13.771000 -6.691000 -5.432000 # A 
186 1 1 0.000000 -12.925000 -5.599000 -6.553000 # A 
187 1 1 0.000000 -13.924000 -7.087000 -7.135000 # A 
188 1 1 0.000000 -14.527000 -8.330000 -6.199000 # A 
189 1 1 0.000000 -14.881000 -9.839000 -5.251000 # A 
190 1 1 0.000000 -13.223000 -10.440000 -6.276000 # A 
191 1 1 0.000000 -14.933000 -9.992000 -5.554000 # A 
192 1 1 0.000000 -16.497000 -9.436000 -4.099000 # A 
193 1 1 0.000000 -14.937000 -8.375000 -4.440000 # A 
194 1 1 0.000000 -15.445000 -8.149000 -2.476000 # A 
195 1 1 0.000000 -15.962000 -7.216000 -0.671000 # A 
196 1 1 0.000000 -17.186001 -6.941000 -2.004000 # A 
197 1 1 0.000000 -18.197001 -8.616000 -1.531000 # A 
198 1 1 0.000000 -16.237000 -9.380000 -1.208000 # A 
199 1 1 0.000000 -17.546000 -10.493000 -0.068000 # A 
200 1 1 0.000000 -15.736000 -11.088000 -0.290000 # A 
201 1 1 0.000000 -15.686000 -12.122000 -2.081000 # A 
202 1 1 0.000000 -14.154000 -12.676000 -2.383000 # A 
203 1 1 0.000000 -14.243000 -10.830000 -2.172000 # A 
204 1 1 0.000000 -14.715000 -9.271000 -0.818000 # A 
205 1 1 0.000000 -15.639000 -8.354000 0.953000 # A 
206 1 1 0.000000 -14.761000 -9.968000 0.192000 # A 
207 1 1 0.000000 -13.385000 -8.412000 -0.459000 # A 
208 1 1 0.000000 -14.139000 -6.972000 0.393000 # A 
209 1 1 0.000000 -14.170000 -8.344000 -1.312000 # A 
210 1 1 0.000000 -13.049000 -9.995000 -1.941000 # A 
211 1 1 0.000000 -13.691000 -8.297000 -1.455000 # A 
212 1 1 0.000000 -15.049000 -6.807000 -1.119000 # A 
213 1 1 0.000000 -13.818000 -7.866000 -2.200000 # A 
214 1 1 0.000000 -14.734000 -7.543000 -0.575000 # A 
215 1 1 0.000000 -13.543000 -7.356000 -2.307000 # A 
216 1 1 0.000000 -12.535000 -8.655000 -1.155000 # A 
217 1 1 0.000000 -12.539000 -9.767000 0.441000 # A 
218 1 1 0.000000 -10.599000 -9.379000 -0.103000 # A 
219 1 1 0.000000 -12.428000 -10.151000 -0.283000 # A 
220 1 1 0.000000 -11.881000 -8.550000 0.521000 # A 
221 1 1 0.000000 -11.396000 -8.290000 -1.560000 # A 
222 1 1 0.000000 -12.453000 -9.196000 -2.457000 # A 
223 1 1 0.000000 -11.747000 -7.193000 -2.095000 # A 
224 1 1 0.000000 -11.995000 -6.466000 -0.212000 # A 
225 1 1 0.000000 -12.039000 -6.834000 -2.168000 # A 
226 1 1 0.000000 -12.165000 -6.534000 -4.101000 # A 
227 1 1 0.000000 -11.303000 -6.558000 -5.586000 # A 
228 1 1 0.000000 -11.360000 -8.209000 -4.463000 # A 
229 1 1 0.000000 -9.896000 -9.724000 -5.214000 # A 
230 1 1 0.000000 -10.828000 -8.865000 -3.757000 # A 
231 1 1 0.000000 -9.962000 -9.514000 -5.166000 # A 
232 1 1 0.000000 -10.695000 -8.656000 -3.724000 # A 
233 1 1 0.000000 -10.653000 -6.795000 -4.520000 # A 
234 1 1 0.000000 -9.276000 -8.003000 -3.350000 # A 
235 1 1 0.000000 -10.844000 -7.358000 -4.241000 # A 
236 1 1 0.000000 -9.368000 -6.741000 -2.833000 # A 
237 1 1 0.000000 -9.740000 -4.667000 -3.060000 # A 
238 1 1 0.000000 -11.148000 -4.004000 -1.605000 # A 
239 1 1 0.000000 -11.017000 -6.100000 -1.542000 # A 
240 1 1 0.000000 -10.907000 -4.295000 -2.146000 # A 
241 1 1 0.000000 -12.683000 -3.483000 -1.489000 # A 
242 1 1 0.000000 -13.088000 -3.763000 -3.136000 # A 
243 1 1 0.000000 -11.939000 -2.900000 -2.127000 # A 
244 1 1 0.000000 -12.790000 -3.689000 -3.236000 # A 
245 1 1 0.000000 -14.353000 -4.687000 -2.915000 # A 
246 1 1 0.000000 -14.526000 -3.216000 -1.603000 # A 
247 1 1 0.000000 -14.800000 -4.240000 -3.201000 # A 
248 1 1 0.000000 -13.958000 -2.517000 -3.378000 # A 
249 1 1 0.000000 -12.523000 -1.474000 -4.418000 # A 
250 1 1 0.000000 -13.753000 -2.979000 -3.779000 # A 
251 1 1 0.000000 -11.658000 -3.753000 -4.021000 # A 
252 1 1 0.000000 -12.509000 -4.288000 -5.870000 # A 
253 1 1 0.000000 -11.732000 -3.784000 -3.898000 # A 
254 1 1 0.000000 -13.111000 -4.747000 -3.733000 # A 
255 1 1 0.000000 -12.306000 -5.851000 -2.597000 # A 
256 1 1 0.000000 -13.116000 -5.758000 -4.488000 # A 
257 1 1 0.000000 -12.862000 -6.512000 -2.693000 # A 
258 1 1 0.000000 -13.401000 -5.969000 -4.376000 # A 
259 1 1 0.000000 -15.575000 -6.071000 -4.107000 # A 
260 1 1 0.000000 -15.105000 -7.763000 -5.190000 # A 
261 1 1 0.000000 -15.491000 -6.784000 -3.402000 # A 
262 1 1 0.000000 -14.490000 -5.644000 -2.113000 # A 
263 1 1 0.000000 -14.812000 -7.308000 -2.317000 # A 
264 1 1 0.000000 -14.012000 -9.220000 -2.346000 # A 
265 1 1 0.000000 -14.441000 -10.581000 -0.984000 # A 
266 1 1 0.000000 -14.540000 -9.143000 -2.603000 # A 
267 1 1 0.000000 -16.552000 -8.789000 -3.065000 # A 
268 1 1 0.000000 -15.860000 -7.224000 -2.216000 # A 
269 1 1 0.000000 -17.874001 -6.675000 -1.093000 # A 
270 1 1 0.000000 -15.907000 -5.646000 -1.158000 # A 
271 1 1 0.000000 -16.433001 -6.170000 -2.922000 # A 
272 1 1 0.000000 -16.639999 -7.791000 -2.516000 # A 
273 1 1 0.000000 -14.828000 -7.498000 -3.553000 # A 
274 1 1 0.000000 -14.063000 -8.890000 -4.986000 # A 
275 1 1 0.000000 -12.673000 -10.212000 -3.919000 # A 
276 1 1 0.000000 -12.749000 -11.980000 -3.127000 # A 
277 1 1 0.000000 -10.648000 -11.632000 -2.469000 # A 
278 1 1 0.000000 -11.421000 -10.182000 -1.282000 # A 
279 1 1 0.000000 -12.719000 -11.890000 -1.882000 # A 
280 1 1 0.000000 -11.754000 -13.109000 -0.675000 # A 
281 1 1 0.000000 -12.875000 -11.653000 -1.147000 # A 
282 1 1 0.000000 -14.537000 -12.142000 -1.365000 # A 
283 1 1 0.000000 -14.685000 -11.418000 -3.071000 # A 
284 1 1 0.000000 -14.956000 -13.244000 -4.054000 # A 
285 1 1 0.000000 -16.513000 -14.753000 -3.994000 # A 
286 1 1 0.000000 -16.098000 -16.143999 -2.967000 # A 
287 1 1 0.000000 -16.090000 -15.468000 -4.754000 # A 
288 1 1 0.000000 -14.709000 -16.587999 -5.914000 # A 
289 1 1 0.000000 -15.253000 -15.016000 -5.442000 # A 
290 1 1 0.000000 -13.249000 -14.591000 -5.350000 # A 
291 1 1 0.000000 -14.694000 -15.399000 -6.619000 # A 
292 1 1 0.000000 -15.611000 -14.104000 -8.016000 # A 
293 1 1 0.000000 -13.721000 -14.543000 -8.075000 # A 
294 1 1 0.000000 -14.263000 -13.025000 -8.810000 # A 
295 1 1 0.000000 -15.446000 -14.731000 -8.921000 # A 
296 1 1 0.000000 -14.286000 -13.113000 -8.371000 # A 
297 1 1 0.000000 -15.232000 -13.699000 -9.952000 # A 
298 1 1 0.000000 -15.770000 -15.398000 -10.167000 # A 
299 1 1 0.000000 -15.180000 -13.656000 -10.663000 # A 
300 1 1 0.000000 -15.435000 -11.931000 -9.613000 # A 
301 1 1 0.000000 -17.705000 -11.745000 -9.199000 # A 
302 1 1 0.000000 -17.033001 -13.255000 -8.111000 # A 
303 1 1 0.000000 -18.579000 -12.069000 -7.943000 # A 
304 1 1 0.000000 -17.098000 -13.189000 -8.347000 # A 
305 1 1 0.000000 -18.542999 -13.442000 -9.889000 # A 
306 1 1 0.000000 -17.125000 -11.986000 -10.210000 # A 
307 1 1 0.000000 -18.868999 -12.643000 -9.213000 # A 
308 1 1 0.000000 -17.802000 -10.753000 -8.792000 # A 
309 1 1 0.000000 -17.344999 -9.440000 -10.183000 # A 
310 1 1 0.000000 -18.190001 -7.761000 -10.353000 # A 
311 1 1 0.000000 -19.101999 -9.339000 -9.342000 # A 
312 1 1 0.000000 -18.517000 -7.146000 -8.504000 # A 
313 1 1 0.000000 -19.048000 -8.626000 -9.593000 # A 
314 1 1 0.000000 -18.271000 -6.771000 -9.244000 # A 
315 1 1 0.000000 -18.973000 -6.497000 -7.339000 # A 
316 1 1 0.000000 -20.787001 -6.606000 -7.880000 # A 
317 1 1 0.000000 -19.254000 -5.815000 -6.724000 # A 
318 1 1 0.000000 -17.754000 -5.798000 -8.257000 # A 
319 1 1 0.000000 -16.854000 -6.583000 -6.693000 # A 
320 1 1 0.000000 -16.254999 -8.302000 -5.495000 # A 
321 1 1 0.000000 -14.814000 -7.255000 -5.965000 # A 
322 1 1 0.000000 -15.925000 -7.455000 -7.405000 # A 
323 1 1 0.000000 -15.028000 -9.039000 -6.720000 # A 
324 1 1 0.000000 -15.891000 -8.469000 -8.520000 # A 
325 1 1 0.000000 -15.230000 -9.745000 -7.475000 # A 
326 1 1 0.000000 -13.465000 -10.570000 -8.348000 # A 
327 1 1 0.000000 -14.098000 -9.096000 -8.874000 # A 
328 1 1 0.000000 -15.382000 -7.785000 -9.514000 # A 
329 1 1 0.000000 -16.438000 -9.475000 -9.598000 # A 
330 1 1 0.000000 -17.198000 -11.045000 -11.065000 # A 
331 1 1 0.000000 -16.431999 -9.409000 -11.018000 # A 
332 1 1 0.000000 -15.221000 -9.898000 -9.291000 # A 
333 1 1 0.000000 -16.891001 -9.495000 -8.700000 # A 
334 1 1 0.000000 -17.499001 -8.450000 -7.340000 # A 
335 1 1 0.000000 -17.297001 -7.018000 -8.739000 # A 
336 1 1 0.000000 -16.952000 -8.147000 -7.021000 # A 
337 1 1 0.000000 -15.692000 -6.849000 -6.433000 # A 
338 1 1 0.000000 -17.308001 -7.702000 -5.708000 # A 
339 1 1 0.000000 -15.647000 -6.823000 -4.989000 # A 
340 1 1 0.000000 -16.833000 -7.565000 -6.153000 # A 
341 1 1 0.000000 -17.318001 -7.742000 -4.270000 # A 
342 1 1 0.000000 -18.382999 -8.083000 -2.485000 # A 
343 1 1 0.000000 -18.601000 -9.588000 -1.310000 # A 
344 1 1 0.000000 -19.459999 -8.577000 -2.678000 # A 
345 1 1 0.000000 -19.257999 -8.755000 -4.922000 # A 
346 1 1 0.000000 -17.246000 -9.125000 -4.623000 # A 
347 1 1 0.000000 -18.982000 -8.013000 -4.840000 # A 
348 1 1 0.000000 -18.549999 -9.458000 -3.638000 # A 
349 1 1 0.000000 -17.722000 -10.655000 -4.702000 # A 
350 1 1 0.000000 -18.534000 -11.739000 -3.554000 # A 
351 1 1 0.000000 -18.562000 -13.607000 -2.871000 # A 
352 1 1 0.000000 -19.841000 -11.964000 -2.790000 # A 
353 1 1 0.000000 -18.111000 -12.325000 -2.669000 # A 
354 1 1 0.000000 -17.289000 -13.159000 -1.107000 # A 
355 1 1 0.000000 -18.148001 -12.041000 -2.557000 # A 
356 1 1 0.000000 -16.962000 -13.545000 -3.213000 # A 
357 1 1 0.000000 -18.455999 -12.726000 -4.354000 # A 
358 1 1 0.000000 -20.090000 -11.842000 -4.552000 # A 
359 1 1 0.000000 -18.938999 -11.476000 -5.712000 # A 
360 1 1 0.000000 -17.568001 -11.835000 -4.015000 # A 
361 1 1 0.000000 -18.054001 -10.800000 -2.707000 # A 
362 1 1 0.000000 -17.232000 -12.129000 -3.772000 # A 
363 1 1 0.000000 -15.171000 -11.777000 -4.624000 # A 
364 1 1 0.000000 -14.108000 -12.810000 -6.039000 # A 
365 1 1 0.000000 -14.586000 -12.104000 -4.245000 # A 
366 1 1 0.000000 -16.200001 -11.695000 -4.068000 # A 
367 1 1 0.000000 -17.237000 -10.941000 -5.673000 # A 
368 1 1 0.000000 -15.642000 -12.205000 -6.246000 # A 
369 1 1 0.000000 -16.757000 -11.679000 -7.902000 # A 
370 1 1 0.000000 -17.603001 -10.335000 -6.750000 # A 
371 1 1 0.000000 -16.135000 -10.019000 -8.093000 # A 
372 1 1 0.000000 -15.353000 -10.879000 -6.268000 # A 
373 1 1 0.000000 -16.490000 -9.733000 -7.148000 # A 
374 1 1 0.000000 -16.240000 -11.085000 -8.757000 # A 
375 1 1 0.000000 -15.991000 -12.710000 -8.056000 # A 
376 1 1 0.000000 -14.731000 -13.602000 -7.058000 # A 
377 1 1 0.000000 -15.760000 -14.116000 -5.445000 # A 
378 1 1 0.000000 -16.740999 -13.067000 -7.064000 # A 
379 1 1 0.000000 -16.843000 -14.435000 -5.772000 # A 
380 1 1 0.000000 -17.399000 -15.100000 -7.367000 # A 
381 1 1 0.000000 -17.875999 -14.297000 -5.499000 # A 
382 1 1 0.000000 -17.878000 -13.270000 -3.522000 # A 
383 1 1 0.000000 -17.792000 -11.980000 -5.197000 # A 
384 1 1 0.000000 -16.187000 -10.814000 -4.663000 # A 
385 1 1 0.000000 -14.325000 -10.766000 -4.083000 # A 
386 1 1 0.000000 -12.964000 -9.244000 -3.844000 # A 
387 1 1 0.000000 -11.922000 -7.496000 -3.461000 # A 
388 1 1 0.000000 -10.316000 -6.121000 -2.619000 # A 
389 1 1 0.000000 -10.408000 -4.955000 -1.136000 # A 
390 1 1 0.000000 -11.666000 -3.676000 -0.187000 # A 
391 1 1 0.000000 -11.066000 -5.085000 -1.113000 # A 
392 1 1 0.000000 -10.441000 -3.221000 -1.795000 # A 
393 1 1 0.000000 -10.944000 -1.620000 -0.812000 # A 
394 1 1 0.000000 -12.864000 -1.377000 -1.638000 # A 
395 1 1 0.000000 -13.477000 -3.077000 -1.031000 # A 
396 1 1 0.000000 -13.871000 -4.964000 -1.806000 # A 
397 1 1 0.000000 -13.835000 -6.748000 -1.037000 # A 
398 1 1 0.000000 -12.542000 -5.453000 0.112000 # A 
399 1 1 0.000000 -13.138000 -7.040000 -0.266000 # A 
400 1 1 0.000000 -13.943000 -5.439000 0.530000 # A 
401 1 1 0.000000 -15.152000 -4.736000 -1.081000 # A 
402 1 1 0.000000 -17.075001 -5.374000 -1.835000 # A 
403 1 1 0.000000 -15.278000 -4.333000 -1.782000 # A 
404 1 1 0.000000 -16.459000 -3.557000 -0.202000 # A 
405 1 1 0.000000 -15.927000 -4.127000 -1.942000 # A 
406 1 1 0.000000 -16.416000 -3.076000 -0.218000 # A 
407 1 1 0.000000 -18.224001 -3.870000 -0.672000 # A 
408 1 1 0.000000 -17.117001 -3.133000 0.687000 # A 
409 1 1 0.000000 -15.985000 -4.790000 0.986000 # A 
410 1 1 0.000000 -16.989000 -5.301000 -0.448000 # A 
411 1 1 0.000000 -18.854000 -5.031000 -0.979000 # A 
412 1 1 0.000000 -17.436001 -3.938000 -1.889000 # A 
413 1 1 0.000000 -16.245001 -3.771000 -3.243000 # A 
414 1 1 0.000000 -16.393999 -4.794000 -4.869000 # A 
415 1 1 0.000000 -15.742000 -3.878000 -3.274000 # A 
416 1 1 0.000000 -14.092000 -4.290000 -3.969000 # A 
417 1 1 0.000000 -13.234000 -5.472000 -2.879000 # A 
418 1 1 0.000000 -15.386000 -5.793000 -3.076000 # A 
419 1 1 0.000000 -16.891001 -4.809000 -3.155000 # A 
420 1 1 0.000000 -17.548000 -3.198000 -4.517000 # A 
421 1 1 0.000000 -16.695000 -1.484000 -5.504000 # A 
422 1 1 0.000000 -15.312000 -2.236000 -4.353000 # A 
423 1 1 0.000000 -16.570999 -1.306000 -5.396000 # A 
424 1 1 0.000000 -18.149000 -1.713000 -4.017000 # A 
425 1 1 0.000000 -17.052000 -2.524000 -5.143000 # A 
426 1 1 0.000000 -18.282000 -3.222000 -6.530000 # A 
427 1 1 0.000000 -18.721001 -2.186000 -8.118000 # A 
428 1 1 0.000000 -19.285000 -0.367000 -8.811000 # A 
429 1 1 0.000000 -17.631001 -1.325000 -8.236000 # A 
430 1 1 0.000000 -18.278999 -2.382000 -9.674000 # A 
431 1 1 0.000000 -18.065001 -3.893000 -9.189000 # A 
432 1 1 0.000000 -17.122000 -3.784000 -10.992000 # A 
433 1 1 0.000000 -19.093000 -3.890000 -11.324000 # A 
434 1 1 0.000000 -18.867001 -5.818000 -10.559000 # A 
435 1 1 0.000000 -20.007999 -6.566000 -9.108000 # A 
436 1 1 0.000000 -18.764999 -7.044000 -10.824000 # A 
437 1 1 0.000000 -17.287001 -8.147000 -9.756000 # A 
438 1 1 0.000000 -16.301001 -6.409000 -9.364000 # A 
439 1 1 0.000000 -17.062000 -7.977000 -10.402000 # A 
440 1 1 0.000000 -16.355000 -7.758000 -12.265000 # A 
441 1 1 0.000000 -15.777000 -9.138000 -13.581000 # A 
442 1 1 0.000000 -15.093000 -9.507000 -15.495000 # A 
443 1 1 0.000000 -15.375000 -8.812000 -16.971001 # A 
444 1 1 0.000000 -15.703000 -7.774000 -15.352000 # A 
445 1 1 0.000000 -16.601000 -9.358000 -14.785000 # A 
446 1 1 0.000000 -15.511000 -7.622000 -15.090000 # A 
447 1 1 0.000000 -14.949000 -5.788000 -16.142000 # A 
448 1 1 0.000000 -13.338000 -5.135000 -17.108000 # A 
449 1 1 0.000000 -13.593000 -7.236000 -17.163000 # A 
450 1 1 0.000000 -14.613000 -6.394000 -18.691000 # A 
451 1 1 0.000000 -15.919000 -7.378000 -17.546000 # A 
452 1 1 0.000000 -14.931000 -6.929000 -15.737000 # A 
453 1 1 0.000000 -14.552000 -6.318000 -14.079000 # A 
454 1 1 0.000000 -15.278000 -4.539000 -14.766000 # A 
455 1 1 0.000000 -14.449000 -6.554000 -14.234000 # A 
456 1 1 0.000000 -13.643000 -7.444000 -16.027000 # A 
457 1 1 0.000000 -14.539000 -6.104000 -17.311001 # A 
458 1 1 0.000000 -14.458000 -7.862000 -15.932000 # A 
459 1 1 0.000000 -13.043000 -6.203000 -15.552000 # A 
460 1 1 0.000000 -12.052000 -7.380000 -14.309000 # A 
461 1 1 0.000000 -12.819000 -6.454000 -15.952000 # A 
462 1 1 0.000000 -12.452000 -7.096000 -13.910000 # A 
463 1 1 0.000000 -13.822000 -7.378000 -14.864000 # A 
464 1 1 0.000000 -13.721000 -9.237000 -13.730000 # A 
465 1 1 0.000000 -11.985000 -8.171000 -13.108000 # A 
466 1 1 0.000000 -13.752000 -7.045000 -13.131000 # A 
467 1 1 0.000000 -12.815000 -6.157000 -11.465000 # A 
468 1 1 0.000000 -14.018000 -7.020000 -12.940000 # A 
469 1 1 0.000000 -12.863000 -6.277000 -11.530000 # A 
470 1 1 0.000000 -14.690000 -6.088000 -12.842000 # A 
471 1 1 0.000000 -14.647000 -7.359000 -11.342000 # A 
472 1 1 0.000000 -16.447001 -8.273000 -11.347000 # A 
473 1 1 0.000000 -15.375000 -9.862000 -12.073000 # A 
474 1 1 0.000000 -14.062000 -9.886000 -10.349000 # A 
475 1 1 0.000000 -16.111000 -10.957000 -10.591000 # A 
476 1 1 0.000000 -17.732000 -9.938000 -11.490000 # A 
477 1 1 0.000000 -18.129000 -10.639000 -9.840000 # A 
478 1 1 0.000000 -20.011000 -9.453000 -10.137000 # A 
479 1 1 0.000000 -20.528000 -10.994000 -11.322000 # A 
480 1 1 0.000000 -19.612000 -9.550000 -10.295000 # A 
481 1 1 0.000000 -19.657000 -8.204000 -11.959000 # A 
482 1 1 0.000000 -19.128000 -9.633000 -13.015000 # A 
483 1 1 0.000000 -17.722000 -9.618000 -14.058000 # A 
484 1 1 0.000000 -16.627001 -11.140000 -13.340000 # A 
485 1 1 0.000000 -18.414000 -11.639000 -13.415000 # A 
486 1 1 0.000000 -16.863001 -10.473000 -14.275000 # A 
487 1 1 0.000000 -15.411000 -11.218000 -15.581000 # A 
488 1 1 0.000000 -16.548000 -12.257000 -14.304000 # A 
489 1 1 0.000000 -17.292999 -13.883000 -12.960000 # A 
490 1 1 0.000000 -15.521000 -13.427000 -13.058000 # A 
491 1 1 0.000000 -14.062000 -12.040000 -12.360000 # A 
492 1 1 0.000000 -13.198000 -10.021000 -12.593000 # A 
493 1 1 0.000000 -14.869000 -11.131000 -13.450000 # A 
494 1 1 0.000000 -13.174000 -12.221000 -13.439000 # A 
495 1 1 0.000000 -13.832000 -10.464000 -14.099000 # A 
496 1 1 0.000000 -13.760000 -9.569000 -15.887000 # A 
497 1 1 0.000000 -12.471000 -11.261000 -15.262000 # A 
498 1 1 0.000000 -12.647000 -9.765000 -13.876000 # A 
499 1 1 0.000000 -14.197000 -8.729000 -14.845000 # A 
500 1 1 0.000000 -14.661000 -8.488000 -12.942000 # A 
501 1 1 0.000000 -13.423000 -7.977000 -11.515000 # A 
502 1 1 0.000000 -14.058000 -5.990000 -11.718000 # A 
503 1 1 0.000000 -13.338000 -5.938000 -13.658000 # A 
504 1 1 0.000000 -13.558000 -4.166000 -14.300000 # A 
505 1 1 0.000000 -12.924000 -5.728000 -13.382000 # A 
506 1 1 0.000000 -12.588000 -5.378000 -15.032000 # A 
507 1 1 0.000000 -11.974000 -3.790000 -16.260000 # A 
508 1 1 0.000000 -13.840000 -4.097000 -17.339001 # A 
509 1 1 0.000000 -14.164000 -5.711000 -18.184999 # A 
510 1 1 0.000000 -12.151000 -5.777000 -17.683001 # A 
511 1 1 0.000000 -10.634000 -5.920000 -18.879000 # A 
512 1 1 0.000000 -9.506000 -7.579000 -18.105000 # A 
513 1 1 0.000000 -8.189000 -6.573000 -18.987000 # A 
514 1 1 0.000000 -7.670000 -5.094000 -17.569000 # A 
515 1 1 0.000000 -7.456000 -6.956000 -18.349001 # A 
516 1 1 0.000000 -7.383000 -5.047000 -17.169001 # A 
517 1 1 0.000000 -8.732000 -6.588000 -17.868999 # A 
518 1 1 0.000000 -9.307000 -4.564000 -18.025999 # A 
519 1 1 0.000000 -10.074000 -6.196000 -16.941999 # A 
520 1 1 0.000000 -11.569000 -5.547000 -15.806000 # A 
521 1 1 0.000000 -9.668000 -4.904000 -16.476999 # A 
522 1 1 0.000000 -8.542000 -4.753000 -15.036000 # A 
523 1 1 0.000000 -9.445000 -3.175000 -15.657000 # A 
524 1 1 0.000000 -8.899000 -2.905000 -17.122999 # A 
525 1 1 0.000000 -10.149000 -1.390000 -16.725000 # A 
526 1 1 0.000000 -10.523000 -3.363000 -16.532000 # A 
527 1 1 0.000000 -10.580000 -5.054000 -16.135000 # A 
528 1 1 0.000000 -10.609000 -5.649000 -14.332000 # A 
529 1 1 0.000000 -10.116000 -7.588000 -14.145000 # A 
530 1 1 0.000000 -11.699000 -8.391000 -14.942000 # A 
531 1 1 0.000000 -12.056000 -10.062000 -16.080000 # A 
532 1 1 0.000000 -10.268000 -10.459000 -15.999000 # A 
533 1 1 0.000000 -11.863000 -10.050000 -14.810000 # A 
534 1 1 0.000000 -9.948000 -9.113000 -15.665000 # A 
535 1 1 0.000000 -11.038000 -9.865000 -14.203000 # A 
536 1 1 0.000000 -11.926000 -11.603000 -13.622000 # A 
537 1 1 0.000000 -10.634000 -12.797000 -14.241000 # A 
538 1 1 0.000000 -11.834000 -11.340000 -14.155000 # A 
539 1 1 0.000000 -12.448000 -13.244000 -14.876000 # A 
540 1 1 0.000000 -14.053000 -13.547000 -13.592000 # A 
541 1 1 0.000000 -12.949000 -13.396000 -12.374000 # A 
542 1 1 0.000000 -13.110000 -13.982000 -10.719000 # A 
543 1 1 0.000000 -11.520000 -13.704000 -12.275000 # A 
544 1 1 0.000000 -11.647000 -13.883000 -10.317000 # A 
545 1 1 0.000000 -12.848000 -12.390000 -10.623000 # A 
546 1 1 0.000000 -13.666000 -11.699000 -9.387000 # A 
547 1 1 0.000000 -12.940000 -12.367000 -10.890000 # A 
548 1 1 0.000000 -14.449000 -12.322000 -9.662000 # A 
549 1 1 0.000000 -14.932000 -10.468000 -10.814000 # A 
550 1 1 0.000000 -14.974000 -8.473000 -10.670000 # A 
551 1 1 0.000000 -14.442000 -7.407000 -9.230000 # A 
552 1 1 0.000000 -15.155000 -5.461000 -9.415000 # A 
553 1 1 0.000000 -15.215000 -4.525000 -11.192000 # A 
554 1 1 0.000000 -15.031000 -5.729000 -9.885000 # A 
555 1 1 0.000000 -16.202000 -6.927000 -10.804000 # A 