LAMMPS data file. CGCMM style. atom_style full generated by VMD/TopoTools v1.7 on Wed Jul 05 21:11:53 EDT 2017
 5000 atoms
 4999 bonds
 4998 angles
 0 dihedrals
 0 impropers
 1 atom types
 1 bond types
 1 angle types
 0 dihedral types
 0 improper types
 -10.802000 10.410999  xlo xhi
 -10.360999 10.522000  ylo yhi
 -10.552999 10.247000  zlo zhi

# Pair Coeffs
#
# 1  A

# Bond Coeffs
#
# 1  

# Angle Coeffs
#
# 1  A-A-A

 Masses

 1 1.000000 # A

 Atoms # full

1 1 1 0.000000 -6.142000 -1.195000 5.386000 # A 
2 1 1 0.000000 -6.631000 -0.899000 4.726000 # A 
3 1 1 0.000000 -7.165000 -1.499000 5.188000 # A 
4 1 1 0.000000 -7.320000 -1.038000 6.108000 # A 
5 1 1 0.000000 -7.743000 -1.788000 6.552000 # A 
6 1 1 0.000000 -8.489000 -1.394000 6.512000 # A 
7 1 1 0.000000 -8.862000 -1.682000 5.551000 # A 
8 1 1 0.000000 -8.051000 -2.371000 5.180000 # A 
9 1 1 0.000000 -7.324000 -3.031000 4.956000 # A 
10 1 1 0.000000 -6.642000 -2.316000 5.537000 # A 
11 1 1 0.000000 -6.602000 -1.638000 6.503000 # A 
12 1 1 0.000000 -6.456000 -0.756000 6.856000 # A 
13 1 1 0.000000 -5.505000 -1.677000 6.940000 # A 
14 1 1 0.000000 -4.852000 -2.611000 7.717000 # A 
15 1 1 0.000000 -5.059000 -2.637000 8.679000 # A 
16 1 1 0.000000 -4.015000 -2.860000 8.569000 # A 
17 1 1 0.000000 -3.230000 -2.321000 8.930000 # A 
18 1 1 0.000000 -2.700000 -2.321000 7.979000 # A 
19 1 1 0.000000 -2.582000 -1.834000 7.629000 # A 
20 1 1 0.000000 -1.767000 -1.784000 8.381000 # A 
21 1 1 0.000000 -1.733000 -0.972000 8.585000 # A 
22 1 1 0.000000 -2.053000 -0.844000 9.153000 # A 
23 1 1 0.000000 -2.774000 -1.104000 9.202000 # A 
24 1 1 0.000000 -3.841000 -1.319000 9.218000 # A 
25 1 1 0.000000 -4.481000 -1.907000 9.543000 # A 
26 1 1 0.000000 -4.700000 -1.623000 8.458000 # A 
27 1 1 0.000000 -3.921000 -0.965000 8.130000 # A 
28 1 1 0.000000 -3.651000 -0.361000 8.224000 # A 
29 1 1 0.000000 -3.038000 -0.053000 8.925000 # A 
30 1 1 0.000000 -4.359000 -0.473000 9.091000 # A 
31 1 1 0.000000 -4.893000 -0.171000 8.749000 # A 
32 1 1 0.000000 -5.411000 0.286000 8.597000 # A 
33 1 1 0.000000 -5.669000 0.686000 7.789000 # A 
34 1 1 0.000000 -5.753000 0.714000 7.282000 # A 
35 1 1 0.000000 -6.467000 1.385000 6.905000 # A 
36 1 1 0.000000 -7.222000 2.150000 6.553000 # A 
37 1 1 0.000000 -6.814000 2.867000 5.668000 # A 
38 1 1 0.000000 -6.469000 3.814000 5.549000 # A 
39 1 1 0.000000 -5.709000 2.963000 5.868000 # A 
40 1 1 0.000000 -5.686000 2.741000 5.407000 # A 
41 1 1 0.000000 -5.292000 1.971000 5.632000 # A 
42 1 1 0.000000 -5.718000 1.999000 6.350000 # A 
43 1 1 0.000000 -5.707000 2.421000 6.908000 # A 
44 1 1 0.000000 -5.450000 1.791000 7.334000 # A 
45 1 1 0.000000 -4.909000 2.111000 8.165000 # A 
46 1 1 0.000000 -4.624000 2.594000 7.764000 # A 
47 1 1 0.000000 -4.343000 2.333000 7.217000 # A 
48 1 1 0.000000 -4.625000 2.295000 6.310000 # A 
49 1 1 0.000000 -3.769000 2.375000 6.140000 # A 
50 1 1 0.000000 -3.408000 2.453000 6.404000 # A 
51 1 1 0.000000 -3.004000 3.293000 5.684000 # A 
52 1 1 0.000000 -2.979000 3.229000 5.212000 # A 
53 1 1 0.000000 -3.647000 3.213000 4.976000 # A 
54 1 1 0.000000 -3.350000 3.377000 4.130000 # A 
55 1 1 0.000000 -3.330000 3.995000 4.349000 # A 
56 1 1 0.000000 -2.988000 4.695000 4.048000 # A 
57 1 1 0.000000 -3.147000 4.585000 3.486000 # A 
58 1 1 0.000000 -3.529000 4.087000 3.386000 # A 
59 1 1 0.000000 -3.350000 3.581000 3.035000 # A 
60 1 1 0.000000 -3.758000 3.755000 2.258000 # A 
61 1 1 0.000000 -4.093000 3.956000 2.497000 # A 
62 1 1 0.000000 -5.111000 3.795000 2.678000 # A 
63 1 1 0.000000 -5.641000 3.621000 2.853000 # A 
64 1 1 0.000000 -4.907000 3.849000 3.667000 # A 
65 1 1 0.000000 -4.722000 3.633000 3.575000 # A 
66 1 1 0.000000 -3.776000 2.622000 3.585000 # A 
67 1 1 0.000000 -4.186000 2.813000 2.744000 # A 
68 1 1 0.000000 -4.594000 2.766000 2.944000 # A 
69 1 1 0.000000 -5.030000 2.137000 2.560000 # A 
70 1 1 0.000000 -5.667000 2.054000 2.138000 # A 
71 1 1 0.000000 -6.041000 2.046000 1.626000 # A 
72 1 1 0.000000 -6.044000 3.025000 2.020000 # A 
73 1 1 0.000000 -6.072000 3.591000 1.999000 # A 
74 1 1 0.000000 -6.907000 3.320000 2.677000 # A 
75 1 1 0.000000 -7.054000 2.811000 2.964000 # A 
76 1 1 0.000000 -7.039000 2.211000 2.752000 # A 
77 1 1 0.000000 -7.198000 1.837000 3.484000 # A 
78 1 1 0.000000 -6.799000 2.490000 4.017000 # A 
79 1 1 0.000000 -6.823000 3.311000 3.828000 # A 
80 1 1 0.000000 -6.452000 3.437000 4.551000 # A 
81 1 1 0.000000 -5.471000 3.471000 4.773000 # A 
82 1 1 0.000000 -4.954000 3.434000 4.620000 # A 
83 1 1 0.000000 -4.303000 3.764000 5.472000 # A 
84 1 1 0.000000 -4.354000 3.395000 5.825000 # A 
85 1 1 0.000000 -4.431000 2.563000 5.290000 # A 
86 1 1 0.000000 -4.362000 2.504000 4.415000 # A 
87 1 1 0.000000 -4.602000 1.249000 5.055000 # A 
88 1 1 0.000000 -4.799000 1.112000 5.679000 # A 
89 1 1 0.000000 -5.465000 0.696000 5.632000 # A 
90 1 1 0.000000 -6.242000 0.540000 6.136000 # A 
91 1 1 0.000000 -7.425000 0.917000 6.259000 # A 
92 1 1 0.000000 -7.372000 1.034000 5.496000 # A 
93 1 1 0.000000 -6.793000 0.229000 5.334000 # A 
94 1 1 0.000000 -6.701000 -0.324000 5.694000 # A 
95 1 1 0.000000 -5.652000 -0.275000 6.527000 # A 
96 1 1 0.000000 -5.565000 -0.541000 5.823000 # A 
97 1 1 0.000000 -5.577000 -0.362000 5.193000 # A 
98 1 1 0.000000 -5.484000 -0.503000 4.783000 # A 
99 1 1 0.000000 -4.495000 -0.816000 5.259000 # A 
100 1 1 0.000000 -4.472000 -0.745000 6.109000 # A 
101 1 1 0.000000 -3.990000 -1.084000 6.289000 # A 
102 1 1 0.000000 -3.554000 -1.152000 5.750000 # A 
103 1 1 0.000000 -3.446000 -0.507000 5.614000 # A 
104 1 1 0.000000 -2.739000 -0.517000 6.149000 # A 
105 1 1 0.000000 -2.831000 -0.646000 6.463000 # A 
106 1 1 0.000000 -2.076000 -0.771000 7.626000 # A 
107 1 1 0.000000 -2.662000 -0.536000 7.787000 # A 
108 1 1 0.000000 -2.637000 -0.076000 7.292000 # A 
109 1 1 0.000000 -1.821000 0.549000 7.008000 # A 
110 1 1 0.000000 -2.122000 0.527000 6.407000 # A 
111 1 1 0.000000 -2.916000 1.347000 6.149000 # A 
112 1 1 0.000000 -2.743000 1.342000 6.092000 # A 
113 1 1 0.000000 -3.412000 1.712000 5.338000 # A 
114 1 1 0.000000 -3.627000 1.787000 5.287000 # A 
115 1 1 0.000000 -2.672000 2.348000 5.783000 # A 
116 1 1 0.000000 -2.084000 2.289000 6.254000 # A 
117 1 1 0.000000 -1.559000 2.394000 6.591000 # A 
118 1 1 0.000000 -2.107000 1.923000 7.240000 # A 
119 1 1 0.000000 -2.456000 1.387000 7.132000 # A 
120 1 1 0.000000 -3.215000 1.358000 7.324000 # A 
121 1 1 0.000000 -3.291000 0.842000 7.853000 # A 
122 1 1 0.000000 -4.182000 0.823000 8.192000 # A 
123 1 1 0.000000 -4.759000 0.247000 7.304000 # A 
124 1 1 0.000000 -4.819000 0.356000 6.447000 # A 
125 1 1 0.000000 -4.625000 1.244000 6.820000 # A 
126 1 1 0.000000 -3.913000 1.334000 6.124000 # A 
127 1 1 0.000000 -3.848000 0.947000 6.097000 # A 
128 1 1 0.000000 -4.101000 0.366000 5.524000 # A 
129 1 1 0.000000 -4.323000 0.146000 4.735000 # A 
130 1 1 0.000000 -4.316000 0.534000 4.354000 # A 
131 1 1 0.000000 -5.267000 0.487000 4.422000 # A 
132 1 1 0.000000 -5.031000 1.600000 4.006000 # A 
133 1 1 0.000000 -5.359000 1.741000 4.468000 # A 
134 1 1 0.000000 -5.580000 2.720000 4.004000 # A 
135 1 1 0.000000 -5.849000 2.559000 3.146000 # A 
136 1 1 0.000000 -5.990000 2.029000 3.163000 # A 
137 1 1 0.000000 -5.969000 1.460000 3.432000 # A 
138 1 1 0.000000 -5.854000 1.103000 3.724000 # A 
139 1 1 0.000000 -6.351000 1.608000 4.361000 # A 
140 1 1 0.000000 -6.218000 1.270000 4.804000 # A 
141 1 1 0.000000 -6.270000 1.804000 5.569000 # A 
142 1 1 0.000000 -7.003000 1.884000 5.170000 # A 
143 1 1 0.000000 -7.544000 1.823000 4.850000 # A 
144 1 1 0.000000 -7.447000 1.261000 4.297000 # A 
145 1 1 0.000000 -7.120000 0.819000 4.071000 # A 
146 1 1 0.000000 -7.689000 0.374000 4.756000 # A 
147 1 1 0.000000 -7.986000 -0.107000 4.604000 # A 
148 1 1 0.000000 -8.675000 0.803000 4.849000 # A 
149 1 1 0.000000 -8.676000 0.881000 5.621000 # A 
150 1 1 0.000000 -8.121000 -0.087000 5.683000 # A 
151 1 1 0.000000 -7.342000 -0.110000 6.802000 # A 
152 1 1 0.000000 -7.256000 -0.008000 7.486000 # A 
153 1 1 0.000000 -6.675000 0.026000 8.156000 # A 
154 1 1 0.000000 -6.149000 -0.333000 7.637000 # A 
155 1 1 0.000000 -5.678000 -1.101000 7.805000 # A 
156 1 1 0.000000 -6.018000 -2.025000 7.916000 # A 
157 1 1 0.000000 -5.735000 -3.073000 7.745000 # A 
158 1 1 0.000000 -5.779000 -3.483000 7.009000 # A 
159 1 1 0.000000 -6.562000 -2.561000 6.952000 # A 
160 1 1 0.000000 -6.958000 -3.071000 6.097000 # A 
161 1 1 0.000000 -6.761000 -3.573000 7.362000 # A 
162 1 1 0.000000 -6.603000 -4.016000 6.601000 # A 
163 1 1 0.000000 -6.303000 -5.011000 6.604000 # A 
164 1 1 0.000000 -5.757000 -4.307000 6.106000 # A 
165 1 1 0.000000 -5.627000 -5.112000 5.396000 # A 
166 1 1 0.000000 -6.157000 -4.869000 5.209000 # A 
167 1 1 0.000000 -6.713000 -4.779000 5.686000 # A 
168 1 1 0.000000 -7.645000 -4.444000 5.178000 # A 
169 1 1 0.000000 -7.542000 -4.054000 4.494000 # A 
170 1 1 0.000000 -6.975000 -4.848000 4.414000 # A 
171 1 1 0.000000 -6.846000 -3.697000 3.929000 # A 
172 1 1 0.000000 -6.549000 -3.515000 4.399000 # A 
173 1 1 0.000000 -6.807000 -2.380000 4.327000 # A 
174 1 1 0.000000 -7.382000 -2.295000 4.209000 # A 
175 1 1 0.000000 -7.803000 -2.119000 4.101000 # A 
176 1 1 0.000000 -7.865000 -1.415000 4.442000 # A 
177 1 1 0.000000 -7.764000 -0.958000 4.060000 # A 
178 1 1 0.000000 -7.243000 -0.383000 3.812000 # A 
179 1 1 0.000000 -6.514000 -0.550000 3.126000 # A 
180 1 1 0.000000 -6.433000 -0.754000 2.886000 # A 
181 1 1 0.000000 -6.701000 -1.298000 3.784000 # A 
182 1 1 0.000000 -6.345000 -1.528000 3.925000 # A 
183 1 1 0.000000 -5.899000 -1.802000 4.409000 # A 
184 1 1 0.000000 -5.497000 -2.385000 5.012000 # A 
185 1 1 0.000000 -5.198000 -1.704000 5.974000 # A 
186 1 1 0.000000 -5.837000 -2.689000 6.207000 # A 
187 1 1 0.000000 -5.097000 -2.749000 6.424000 # A 
188 1 1 0.000000 -4.956000 -2.954000 5.808000 # A 
189 1 1 0.000000 -4.486000 -3.033000 5.020000 # A 
190 1 1 0.000000 -3.889000 -3.767000 5.547000 # A 
191 1 1 0.000000 -3.615000 -4.111000 6.195000 # A 
192 1 1 0.000000 -2.874000 -3.623000 6.093000 # A 
193 1 1 0.000000 -3.402000 -2.720000 5.548000 # A 
194 1 1 0.000000 -3.685000 -2.557000 5.993000 # A 
195 1 1 0.000000 -4.142000 -1.977000 5.653000 # A 
196 1 1 0.000000 -4.457000 -1.904000 5.394000 # A 
197 1 1 0.000000 -4.058000 -1.758000 4.654000 # A 
198 1 1 0.000000 -4.014000 -2.130000 4.422000 # A 
199 1 1 0.000000 -4.968000 -1.533000 4.290000 # A 
200 1 1 0.000000 -4.220000 -0.996000 4.083000 # A 
201 1 1 0.000000 -4.058000 -1.216000 3.741000 # A 
202 1 1 0.000000 -3.628000 -0.305000 3.569000 # A 
203 1 1 0.000000 -3.805000 -0.246000 3.466000 # A 
204 1 1 0.000000 -4.517000 0.019000 2.832000 # A 
205 1 1 0.000000 -4.367000 -0.307000 2.410000 # A 
206 1 1 0.000000 -3.957000 -0.837000 2.285000 # A 
207 1 1 0.000000 -3.310000 -0.991000 2.861000 # A 
208 1 1 0.000000 -2.983000 -1.149000 2.668000 # A 
209 1 1 0.000000 -2.177000 -1.245000 2.768000 # A 
210 1 1 0.000000 -1.441000 -1.115000 2.883000 # A 
211 1 1 0.000000 -1.309000 -0.758000 3.266000 # A 
212 1 1 0.000000 -1.502000 -0.127000 3.331000 # A 
213 1 1 0.000000 -2.112000 -0.473000 4.295000 # A 
214 1 1 0.000000 -2.044000 -1.143000 4.223000 # A 
215 1 1 0.000000 -2.103000 -1.699000 3.656000 # A 
216 1 1 0.000000 -1.962000 -1.933000 3.606000 # A 
217 1 1 0.000000 -0.909000 -1.384000 4.041000 # A 
218 1 1 0.000000 -0.883000 -1.070000 4.397000 # A 
219 1 1 0.000000 -1.087000 -0.538000 4.661000 # A 
220 1 1 0.000000 -1.093000 0.016000 4.280000 # A 
221 1 1 0.000000 -0.517000 -0.228000 3.656000 # A 
222 1 1 0.000000 -0.415000 -0.357000 3.564000 # A 
223 1 1 0.000000 -0.874000 0.708000 3.647000 # A 
224 1 1 0.000000 -0.566000 1.093000 3.863000 # A 
225 1 1 0.000000 -1.442000 1.291000 4.181000 # A 
226 1 1 0.000000 -1.219000 1.878000 4.522000 # A 
227 1 1 0.000000 -0.926000 2.149000 4.574000 # A 
228 1 1 0.000000 -0.021000 2.255000 5.065000 # A 
229 1 1 0.000000 0.581000 2.127000 5.253000 # A 
230 1 1 0.000000 0.785000 1.934000 5.714000 # A 
231 1 1 0.000000 0.747000 1.085000 5.063000 # A 
232 1 1 0.000000 0.292000 1.047000 4.956000 # A 
233 1 1 0.000000 -0.299000 1.277000 4.904000 # A 
234 1 1 0.000000 -0.751000 0.996000 4.939000 # A 
235 1 1 0.000000 -1.198000 0.905000 5.227000 # A 
236 1 1 0.000000 -1.818000 0.685000 4.949000 # A 
237 1 1 0.000000 -2.528000 1.102000 4.838000 # A 
238 1 1 0.000000 -2.553000 1.352000 5.060000 # A 
239 1 1 0.000000 -1.846000 1.722000 5.315000 # A 
240 1 1 0.000000 -1.689000 1.388000 5.909000 # A 
241 1 1 0.000000 -1.470000 1.406000 6.295000 # A 
242 1 1 0.000000 -1.160000 1.371000 6.921000 # A 
243 1 1 0.000000 -0.804000 1.260000 7.063000 # A 
244 1 1 0.000000 -0.210000 0.746000 6.764000 # A 
245 1 1 0.000000 0.358000 0.869000 6.038000 # A 
246 1 1 0.000000 -0.090000 1.548000 6.065000 # A 
247 1 1 0.000000 -0.425000 1.595000 5.858000 # A 
248 1 1 0.000000 -0.934000 2.191000 5.635000 # A 
249 1 1 0.000000 -0.974000 2.961000 5.851000 # A 
250 1 1 0.000000 -0.512000 3.443000 5.939000 # A 
251 1 1 0.000000 -1.155000 3.318000 6.804000 # A 
252 1 1 0.000000 -1.581000 3.308000 7.124000 # A 
253 1 1 0.000000 -1.879000 3.383000 6.162000 # A 
254 1 1 0.000000 -1.984000 3.404000 5.701000 # A 
255 1 1 0.000000 -1.785000 2.686000 5.191000 # A 
256 1 1 0.000000 -2.210000 2.533000 4.745000 # A 
257 1 1 0.000000 -2.462000 2.730000 4.448000 # A 
258 1 1 0.000000 -3.179000 2.446000 4.523000 # A 
259 1 1 0.000000 -3.564000 1.863000 4.215000 # A 
260 1 1 0.000000 -3.788000 1.635000 4.224000 # A 
261 1 1 0.000000 -3.457000 0.815000 4.639000 # A 
262 1 1 0.000000 -3.281000 0.239000 4.480000 # A 
263 1 1 0.000000 -3.010000 -0.046000 4.482000 # A 
264 1 1 0.000000 -2.575000 0.093000 5.301000 # A 
265 1 1 0.000000 -3.047000 0.473000 5.615000 # A 
266 1 1 0.000000 -3.250000 0.410000 6.620000 # A 
267 1 1 0.000000 -3.767000 0.067000 6.564000 # A 
268 1 1 0.000000 -3.910000 -0.412000 7.189000 # A 
269 1 1 0.000000 -4.571000 -1.367000 7.102000 # A 
270 1 1 0.000000 -3.880000 -1.951000 7.407000 # A 
271 1 1 0.000000 -3.373000 -1.603000 7.134000 # A 
272 1 1 0.000000 -3.306000 -2.718000 7.009000 # A 
273 1 1 0.000000 -4.124000 -3.326000 6.834000 # A 
274 1 1 0.000000 -3.822000 -3.592000 7.353000 # A 
275 1 1 0.000000 -4.211000 -4.250000 7.849000 # A 
276 1 1 0.000000 -4.843000 -3.999000 6.809000 # A 
277 1 1 0.000000 -4.656000 -4.193000 6.092000 # A 
278 1 1 0.000000 -4.594000 -4.666000 5.415000 # A 
279 1 1 0.000000 -4.838000 -4.036000 5.097000 # A 
280 1 1 0.000000 -5.703000 -3.660000 4.889000 # A 
281 1 1 0.000000 -5.284000 -3.315000 4.438000 # A 
282 1 1 0.000000 -5.074000 -2.767000 4.152000 # A 
283 1 1 0.000000 -5.358000 -2.338000 3.631000 # A 
284 1 1 0.000000 -5.918000 -2.963000 3.627000 # A 
285 1 1 0.000000 -6.013000 -3.304000 3.123000 # A 
286 1 1 0.000000 -6.010000 -3.956000 3.481000 # A 
287 1 1 0.000000 -6.417000 -3.938000 2.331000 # A 
288 1 1 0.000000 -5.524000 -4.116000 2.435000 # A 
289 1 1 0.000000 -5.499000 -3.750000 2.083000 # A 
290 1 1 0.000000 -5.722000 -3.122000 2.239000 # A 
291 1 1 0.000000 -5.806000 -2.739000 1.979000 # A 
292 1 1 0.000000 -5.186000 -2.258000 2.486000 # A 
293 1 1 0.000000 -4.815000 -2.410000 2.216000 # A 
294 1 1 0.000000 -4.530000 -3.015000 2.021000 # A 
295 1 1 0.000000 -4.502000 -3.446000 2.090000 # A 
296 1 1 0.000000 -4.349000 -3.992000 2.401000 # A 
297 1 1 0.000000 -3.957000 -4.051000 3.002000 # A 
298 1 1 0.000000 -3.768000 -3.802000 3.367000 # A 
299 1 1 0.000000 -4.013000 -3.219000 3.748000 # A 
300 1 1 0.000000 -3.472000 -3.056000 4.224000 # A 
301 1 1 0.000000 -3.925000 -3.821000 4.537000 # A 
302 1 1 0.000000 -4.405000 -4.510000 4.110000 # A 
303 1 1 0.000000 -5.176000 -4.903000 4.520000 # A 
304 1 1 0.000000 -5.932000 -4.868000 4.176000 # A 
305 1 1 0.000000 -6.613000 -5.085000 3.340000 # A 
306 1 1 0.000000 -6.107000 -4.952000 2.973000 # A 
307 1 1 0.000000 -5.644000 -5.226000 2.673000 # A 
308 1 1 0.000000 -5.245000 -5.953000 2.785000 # A 
309 1 1 0.000000 -4.702000 -6.080000 2.708000 # A 
310 1 1 0.000000 -4.022000 -6.348000 2.371000 # A 
311 1 1 0.000000 -4.161000 -7.288000 3.147000 # A 
312 1 1 0.000000 -4.644000 -7.441000 3.335000 # A 
313 1 1 0.000000 -4.759000 -8.173000 3.576000 # A 
314 1 1 0.000000 -4.638000 -8.994000 2.920000 # A 
315 1 1 0.000000 -3.983000 -8.249000 2.772000 # A 
316 1 1 0.000000 -2.858000 -8.135000 2.786000 # A 
317 1 1 0.000000 -3.135000 -7.251000 2.789000 # A 
318 1 1 0.000000 -3.589000 -7.299000 2.131000 # A 
319 1 1 0.000000 -3.143000 -7.629000 1.676000 # A 
320 1 1 0.000000 -2.820000 -7.453000 0.978000 # A 
321 1 1 0.000000 -3.455000 -7.626000 0.504000 # A 
322 1 1 0.000000 -4.123000 -8.176000 1.036000 # A 
323 1 1 0.000000 -4.744000 -8.091000 0.320000 # A 
324 1 1 0.000000 -5.500000 -7.492000 0.003000 # A 
325 1 1 0.000000 -5.916000 -7.920000 -0.905000 # A 
326 1 1 0.000000 -6.438000 -8.350000 -0.415000 # A 
327 1 1 0.000000 -5.337000 -8.861000 -0.520000 # A 
328 1 1 0.000000 -4.707000 -8.925000 -1.661000 # A 
329 1 1 0.000000 -3.884000 -8.503000 -1.870000 # A 
330 1 1 0.000000 -3.668000 -8.120000 -2.980000 # A 
331 1 1 0.000000 -3.413000 -7.070000 -3.367000 # A 
332 1 1 0.000000 -3.153000 -6.942000 -2.866000 # A 
333 1 1 0.000000 -3.047000 -7.116000 -2.234000 # A 
334 1 1 0.000000 -3.352000 -7.196000 -1.744000 # A 
335 1 1 0.000000 -3.540000 -6.684000 -1.159000 # A 
336 1 1 0.000000 -3.698000 -7.512000 -0.598000 # A 
337 1 1 0.000000 -3.831000 -8.005000 -0.896000 # A 
338 1 1 0.000000 -2.682000 -8.185000 -0.854000 # A 
339 1 1 0.000000 -2.454000 -7.712000 -0.133000 # A 
340 1 1 0.000000 -2.751000 -7.328000 -0.229000 # A 
341 1 1 0.000000 -2.518000 -6.412000 -0.418000 # A 
342 1 1 0.000000 -2.616000 -6.193000 -0.186000 # A 
343 1 1 0.000000 -2.302000 -5.856000 0.493000 # A 
344 1 1 0.000000 -2.273000 -6.060000 0.966000 # A 
345 1 1 0.000000 -2.048000 -5.444000 1.460000 # A 
346 1 1 0.000000 -2.290000 -5.448000 2.034000 # A 
347 1 1 0.000000 -2.190000 -5.454000 2.710000 # A 
348 1 1 0.000000 -2.180000 -5.326000 3.276000 # A 
349 1 1 0.000000 -2.842000 -4.599000 3.064000 # A 
350 1 1 0.000000 -3.253000 -4.801000 3.221000 # A 
351 1 1 0.000000 -4.195000 -5.075000 3.145000 # A 
352 1 1 0.000000 -4.915000 -5.145000 3.536000 # A 
353 1 1 0.000000 -5.090000 -4.329000 3.224000 # A 
354 1 1 0.000000 -4.917000 -3.716000 3.158000 # A 
355 1 1 0.000000 -4.972000 -3.207000 3.058000 # A 
356 1 1 0.000000 -3.877000 -2.805000 2.850000 # A 
357 1 1 0.000000 -4.296000 -2.315000 3.293000 # A 
358 1 1 0.000000 -4.199000 -1.810000 2.944000 # A 
359 1 1 0.000000 -3.704000 -1.873000 2.376000 # A 
360 1 1 0.000000 -3.720000 -2.299000 1.944000 # A 
361 1 1 0.000000 -3.774000 -2.636000 1.362000 # A 
362 1 1 0.000000 -3.724000 -3.017000 1.083000 # A 
363 1 1 0.000000 -3.391000 -3.386000 1.991000 # A 
364 1 1 0.000000 -2.976000 -3.301000 2.659000 # A 
365 1 1 0.000000 -2.643000 -3.659000 2.872000 # A 
366 1 1 0.000000 -2.666000 -2.943000 3.677000 # A 
367 1 1 0.000000 -2.348000 -2.880000 3.656000 # A 
368 1 1 0.000000 -1.717000 -3.328000 2.970000 # A 
369 1 1 0.000000 -1.372000 -2.896000 3.097000 # A 
370 1 1 0.000000 -1.195000 -2.452000 3.284000 # A 
371 1 1 0.000000 -0.507000 -2.057000 3.280000 # A 
372 1 1 0.000000 -0.299000 -2.340000 2.912000 # A 
373 1 1 0.000000 -0.521000 -2.661000 2.436000 # A 
374 1 1 0.000000 -0.845000 -2.976000 2.247000 # A 
375 1 1 0.000000 -1.828000 -3.224000 1.903000 # A 
376 1 1 0.000000 -2.256000 -3.097000 1.985000 # A 
377 1 1 0.000000 -2.620000 -2.666000 1.358000 # A 
378 1 1 0.000000 -2.710000 -2.177000 1.667000 # A 
379 1 1 0.000000 -2.967000 -1.697000 1.477000 # A 
380 1 1 0.000000 -3.403000 -1.058000 1.373000 # A 
381 1 1 0.000000 -2.957000 -0.712000 1.666000 # A 
382 1 1 0.000000 -2.854000 -0.113000 1.535000 # A 
383 1 1 0.000000 -3.675000 -0.018000 1.350000 # A 
384 1 1 0.000000 -4.014000 -0.217000 1.224000 # A 
385 1 1 0.000000 -4.602000 -0.472000 1.095000 # A 
386 1 1 0.000000 -4.968000 -0.666000 1.111000 # A 
387 1 1 0.000000 -5.457000 -1.370000 0.669000 # A 
388 1 1 0.000000 -5.652000 -1.230000 0.560000 # A 
389 1 1 0.000000 -5.380000 -0.576000 -0.041000 # A 
390 1 1 0.000000 -5.016000 -0.369000 -0.151000 # A 
391 1 1 0.000000 -4.400000 -0.068000 0.008000 # A 
392 1 1 0.000000 -4.046000 0.333000 0.284000 # A 
393 1 1 0.000000 -3.738000 0.759000 0.472000 # A 
394 1 1 0.000000 -3.378000 0.900000 1.077000 # A 
395 1 1 0.000000 -3.003000 1.056000 1.540000 # A 
396 1 1 0.000000 -2.873000 0.900000 2.009000 # A 
397 1 1 0.000000 -2.992000 0.613000 2.572000 # A 
398 1 1 0.000000 -3.417000 -0.053000 2.531000 # A 
399 1 1 0.000000 -4.338000 0.918000 2.342000 # A 
400 1 1 0.000000 -4.018000 0.809000 2.302000 # A 
401 1 1 0.000000 -3.826000 1.565000 1.749000 # A 
402 1 1 0.000000 -3.991000 1.855000 1.574000 # A 
403 1 1 0.000000 -4.920000 2.003000 1.229000 # A 
404 1 1 0.000000 -5.053000 1.547000 1.187000 # A 
405 1 1 0.000000 -5.517000 1.141000 1.218000 # A 
406 1 1 0.000000 -5.940000 0.947000 0.929000 # A 
407 1 1 0.000000 -5.465000 0.232000 0.639000 # A 
408 1 1 0.000000 -5.013000 0.378000 0.666000 # A 
409 1 1 0.000000 -4.422000 0.861000 1.270000 # A 
410 1 1 0.000000 -5.114000 0.222000 1.715000 # A 
411 1 1 0.000000 -5.903000 0.061000 1.834000 # A 
412 1 1 0.000000 -5.865000 -0.497000 1.850000 # A 
413 1 1 0.000000 -6.362000 -0.757000 1.443000 # A 
414 1 1 0.000000 -7.196000 -0.940000 1.459000 # A 
415 1 1 0.000000 -8.197000 -1.411000 1.280000 # A 
416 1 1 0.000000 -8.829000 -1.667000 1.007000 # A 
417 1 1 0.000000 -7.811000 -2.300000 0.772000 # A 
418 1 1 0.000000 -7.392000 -2.970000 0.964000 # A 
419 1 1 0.000000 -7.262000 -2.004000 1.596000 # A 
420 1 1 0.000000 -7.152000 -2.367000 2.193000 # A 
421 1 1 0.000000 -6.634000 -2.635000 2.527000 # A 
422 1 1 0.000000 -6.116000 -2.140000 3.006000 # A 
423 1 1 0.000000 -6.262000 -1.528000 2.147000 # A 
424 1 1 0.000000 -5.720000 -1.514000 1.796000 # A 
425 1 1 0.000000 -5.275000 -1.467000 1.721000 # A 
426 1 1 0.000000 -4.701000 -1.362000 1.769000 # A 
427 1 1 0.000000 -4.324000 -1.557000 1.510000 # A 
428 1 1 0.000000 -4.941000 -2.232000 1.180000 # A 
429 1 1 0.000000 -5.028000 -2.808000 1.204000 # A 
430 1 1 0.000000 -4.708000 -3.653000 1.052000 # A 
431 1 1 0.000000 -3.974000 -3.968000 1.327000 # A 
432 1 1 0.000000 -4.089000 -4.420000 1.224000 # A 
433 1 1 0.000000 -3.349000 -4.932000 2.179000 # A 
434 1 1 0.000000 -3.299000 -4.391000 1.993000 # A 
435 1 1 0.000000 -2.984000 -3.933000 1.073000 # A 
436 1 1 0.000000 -2.765000 -3.581000 1.079000 # A 
437 1 1 0.000000 -1.943000 -3.107000 0.777000 # A 
438 1 1 0.000000 -1.908000 -3.191000 0.483000 # A 
439 1 1 0.000000 -1.737000 -4.145000 0.220000 # A 
440 1 1 0.000000 -1.698000 -4.356000 0.795000 # A 
441 1 1 0.000000 -2.013000 -4.384000 1.142000 # A 
442 1 1 0.000000 -2.294000 -4.248000 1.725000 # A 
443 1 1 0.000000 -2.291000 -4.210000 2.095000 # A 
444 1 1 0.000000 -1.811000 -4.435000 2.704000 # A 
445 1 1 0.000000 -1.184000 -4.051000 2.507000 # A 
446 1 1 0.000000 -1.181000 -4.156000 2.049000 # A 
447 1 1 0.000000 -1.030000 -3.796000 1.554000 # A 
448 1 1 0.000000 -0.923000 -3.665000 1.016000 # A 
449 1 1 0.000000 -0.905000 -3.203000 0.682000 # A 
450 1 1 0.000000 -1.049000 -2.542000 1.040000 # A 
451 1 1 0.000000 -1.492000 -2.421000 1.360000 # A 
452 1 1 0.000000 -1.991000 -1.896000 0.765000 # A 
453 1 1 0.000000 -2.237000 -1.865000 0.703000 # A 
454 1 1 0.000000 -2.719000 -1.236000 0.580000 # A 
455 1 1 0.000000 -2.317000 -0.633000 0.876000 # A 
456 1 1 0.000000 -1.872000 -0.560000 0.818000 # A 
457 1 1 0.000000 -1.616000 0.167000 0.247000 # A 
458 1 1 0.000000 -1.615000 0.203000 0.102000 # A 
459 1 1 0.000000 -1.632000 -0.898000 -0.160000 # A 
460 1 1 0.000000 -1.609000 -1.273000 -0.050000 # A 
461 1 1 0.000000 -1.645000 -2.079000 -0.258000 # A 
462 1 1 0.000000 -1.507000 -2.206000 -0.241000 # A 
463 1 1 0.000000 -0.579000 -1.531000 0.075000 # A 
464 1 1 0.000000 -0.549000 -1.527000 -0.040000 # A 
465 1 1 0.000000 0.528000 -1.302000 -0.075000 # A 
466 1 1 0.000000 0.526000 -1.321000 -0.172000 # A 
467 1 1 0.000000 1.263000 -1.526000 -0.854000 # A 
468 1 1 0.000000 1.296000 -1.282000 -0.932000 # A 
469 1 1 0.000000 0.637000 -0.980000 -1.423000 # A 
470 1 1 0.000000 0.205000 -1.411000 -1.188000 # A 
471 1 1 0.000000 -0.168000 -1.810000 -1.168000 # A 
472 1 1 0.000000 -0.598000 -2.124000 -1.075000 # A 
473 1 1 0.000000 -1.152000 -2.205000 -1.192000 # A 
474 1 1 0.000000 -1.515000 -2.564000 -1.275000 # A 
475 1 1 0.000000 -1.984000 -2.774000 -1.413000 # A 
476 1 1 0.000000 -2.443000 -2.870000 -0.663000 # A 
477 1 1 0.000000 -2.537000 -2.743000 -0.424000 # A 
478 1 1 0.000000 -2.791000 -2.724000 0.321000 # A 
479 1 1 0.000000 -3.186000 -2.331000 0.366000 # A 
480 1 1 0.000000 -3.657000 -2.068000 0.485000 # A 
481 1 1 0.000000 -4.295000 -2.283000 0.450000 # A 
482 1 1 0.000000 -4.358000 -2.738000 0.262000 # A 
483 1 1 0.000000 -3.840000 -2.822000 -0.347000 # A 
484 1 1 0.000000 -3.429000 -3.223000 -0.329000 # A 
485 1 1 0.000000 -3.390000 -3.569000 -0.920000 # A 
486 1 1 0.000000 -2.672000 -3.775000 -0.272000 # A 
487 1 1 0.000000 -3.315000 -4.251000 -0.103000 # A 
488 1 1 0.000000 -3.707000 -4.222000 0.240000 # A 
489 1 1 0.000000 -4.405000 -4.577000 0.281000 # A 
490 1 1 0.000000 -4.697000 -4.713000 0.044000 # A 
491 1 1 0.000000 -5.384000 -4.136000 0.272000 # A 
492 1 1 0.000000 -5.055000 -3.518000 0.084000 # A 
493 1 1 0.000000 -4.606000 -3.608000 -0.365000 # A 
494 1 1 0.000000 -4.345000 -3.864000 -0.622000 # A 
495 1 1 0.000000 -4.073000 -4.629000 -0.909000 # A 
496 1 1 0.000000 -4.432000 -5.011000 -1.034000 # A 
497 1 1 0.000000 -4.685000 -5.665000 -0.718000 # A 
498 1 1 0.000000 -4.894000 -5.982000 -1.722000 # A 
499 1 1 0.000000 -5.623000 -6.091000 -1.105000 # A 
500 1 1 0.000000 -6.258000 -6.510000 -0.938000 # A 
501 1 1 0.000000 -6.296000 -6.441000 -0.004000 # A 
502 1 1 0.000000 -5.118000 -6.566000 -0.285000 # A 
503 1 1 0.000000 -4.468000 -6.712000 -0.718000 # A 
504 1 1 0.000000 -4.933000 -7.130000 -1.321000 # A 
505 1 1 0.000000 -4.785000 -7.762000 -1.426000 # A 
506 1 1 0.000000 -4.177000 -7.404000 -2.366000 # A 
507 1 1 0.000000 -4.434000 -7.470000 -3.360000 # A 
508 1 1 0.000000 -4.595000 -7.260000 -4.187000 # A 
509 1 1 0.000000 -4.375000 -8.352000 -4.486000 # A 
510 1 1 0.000000 -3.971000 -8.595000 -5.025000 # A 
511 1 1 0.000000 -3.347000 -8.183000 -4.026000 # A 
512 1 1 0.000000 -2.991000 -9.206000 -4.069000 # A 
513 1 1 0.000000 -2.436000 -8.994000 -3.468000 # A 
514 1 1 0.000000 -1.895000 -8.505000 -2.712000 # A 
515 1 1 0.000000 -1.823000 -8.402000 -2.048000 # A 
516 1 1 0.000000 -1.340000 -8.945000 -1.435000 # A 
517 1 1 0.000000 -1.744000 -8.337000 -0.806000 # A 
518 1 1 0.000000 -1.488000 -7.891000 -1.170000 # A 
519 1 1 0.000000 -2.051000 -7.498000 -1.270000 # A 
520 1 1 0.000000 -2.225000 -6.999000 -1.287000 # A 
521 1 1 0.000000 -2.675000 -6.236000 -1.718000 # A 
522 1 1 0.000000 -2.547000 -5.756000 -1.545000 # A 
523 1 1 0.000000 -1.997000 -5.349000 -1.788000 # A 
524 1 1 0.000000 -2.214000 -4.781000 -1.925000 # A 
525 1 1 0.000000 -1.800000 -4.470000 -2.480000 # A 
526 1 1 0.000000 -1.776000 -4.441000 -3.028000 # A 
527 1 1 0.000000 -2.457000 -3.755000 -3.686000 # A 
528 1 1 0.000000 -2.621000 -4.113000 -3.870000 # A 
529 1 1 0.000000 -2.541000 -4.541000 -4.445000 # A 
530 1 1 0.000000 -2.512000 -4.068000 -5.129000 # A 
531 1 1 0.000000 -2.422000 -4.921000 -5.486000 # A 
532 1 1 0.000000 -2.123000 -5.030000 -5.752000 # A 
533 1 1 0.000000 -1.632000 -5.652000 -5.680000 # A 
534 1 1 0.000000 -0.501000 -5.167000 -5.838000 # A 
535 1 1 0.000000 -0.459000 -5.481000 -6.246000 # A 
536 1 1 0.000000 0.216000 -5.019000 -6.630000 # A 
537 1 1 0.000000 0.225000 -4.598000 -6.333000 # A 
538 1 1 0.000000 -0.393000 -3.747000 -6.280000 # A 
539 1 1 0.000000 -0.870000 -3.366000 -7.126000 # A 
540 1 1 0.000000 -1.050000 -3.696000 -7.121000 # A 
541 1 1 0.000000 -0.916000 -4.804000 -7.418000 # A 
542 1 1 0.000000 -0.908000 -4.687000 -6.886000 # A 
543 1 1 0.000000 -1.348000 -5.805000 -7.030000 # A 
544 1 1 0.000000 -1.840000 -5.627000 -7.141000 # A 
545 1 1 0.000000 -2.507000 -5.763000 -7.401000 # A 
546 1 1 0.000000 -2.904000 -6.273000 -7.254000 # A 
547 1 1 0.000000 -3.725000 -5.990000 -6.596000 # A 
548 1 1 0.000000 -4.032000 -5.596000 -6.115000 # A 
549 1 1 0.000000 -4.430000 -5.267000 -5.675000 # A 
550 1 1 0.000000 -3.880000 -5.848000 -5.036000 # A 
551 1 1 0.000000 -3.341000 -5.352000 -4.755000 # A 
552 1 1 0.000000 -3.516000 -4.364000 -4.798000 # A 
553 1 1 0.000000 -4.575000 -4.442000 -5.067000 # A 
554 1 1 0.000000 -4.605000 -4.369000 -4.339000 # A 
555 1 1 0.000000 -4.670000 -4.408000 -3.679000 # A 
556 1 1 0.000000 -5.391000 -5.128000 -3.979000 # A 
557 1 1 0.000000 -5.914000 -5.209000 -3.376000 # A 
558 1 1 0.000000 -6.353000 -5.420000 -2.535000 # A 
559 1 1 0.000000 -5.681000 -5.889000 -2.344000 # A 
560 1 1 0.000000 -6.261000 -6.259000 -3.262000 # A 
561 1 1 0.000000 -6.288000 -6.642000 -3.215000 # A 
562 1 1 0.000000 -7.147000 -7.002000 -3.246000 # A 
563 1 1 0.000000 -7.542000 -6.147000 -2.785000 # A 
564 1 1 0.000000 -7.271000 -5.549000 -3.869000 # A 
565 1 1 0.000000 -7.748000 -4.907000 -3.225000 # A 
566 1 1 0.000000 -7.241000 -5.096000 -2.595000 # A 
567 1 1 0.000000 -6.872000 -4.372000 -3.264000 # A 
568 1 1 0.000000 -6.436000 -3.821000 -3.718000 # A 
569 1 1 0.000000 -5.818000 -3.599000 -3.980000 # A 
570 1 1 0.000000 -5.844000 -2.847000 -3.499000 # A 
571 1 1 0.000000 -5.342000 -2.490000 -4.264000 # A 
572 1 1 0.000000 -5.854000 -2.257000 -4.780000 # A 
573 1 1 0.000000 -5.227000 -2.165000 -5.408000 # A 
574 1 1 0.000000 -4.738000 -1.792000 -4.988000 # A 
575 1 1 0.000000 -4.272000 -1.496000 -4.540000 # A 
576 1 1 0.000000 -4.055000 -1.244000 -4.364000 # A 
577 1 1 0.000000 -3.697000 -1.229000 -3.758000 # A 
578 1 1 0.000000 -3.480000 -0.548000 -3.292000 # A 
579 1 1 0.000000 -3.184000 -0.164000 -3.374000 # A 
580 1 1 0.000000 -2.884000 0.206000 -2.775000 # A 
581 1 1 0.000000 -3.054000 0.504000 -2.520000 # A 
582 1 1 0.000000 -2.658000 1.017000 -2.183000 # A 