LAMMPS data file. CGCMM style. atom_style full generated by VMD/TopoTools v1.7 on Mon Aug 06 12:38:31 EDT 2018
 40000 atoms
 39999 bonds
 39998 angles
 0 dihedrals
 0 impropers
 1 atom types
 1 bond types
 1 angle types
 0 dihedral types
 0 improper types
 -31.955000 31.982000  xlo xhi
 -32.629499 31.043501  ylo yhi
 -31.633001 31.838000  zlo zhi

# Pair Coeffs
#
# 1  A

# Bond Coeffs
#
# 1  

# Angle Coeffs
#
# 1  A-A-A

 Masses

 1 1.000000 # A

 Atoms # full

1 1 1 0.000000 -3.018000 -10.394000 11.193000 # A 
2 1 1 0.000000 -2.878000 -11.490000 9.494000 # A 
3 1 1 0.000000 -4.575000 -10.810000 10.943000 # A 
4 1 1 0.000000 -3.927000 -11.322000 9.037000 # A 
5 1 1 0.000000 -5.080000 -10.539000 10.301000 # A 
6 1 1 0.000000 -6.143000 -9.356000 9.298000 # A 
7 1 1 0.000000 -7.976000 -9.053000 9.310000 # A 
8 1 1 0.000000 -7.177000 -8.031000 7.618000 # A 
9 1 1 0.000000 -6.568000 -6.573000 8.324000 # A 
10 1 1 0.000000 -8.470000 -6.555000 8.253000 # A 
11 1 1 0.000000 -6.642000 -5.707000 8.138000 # A 
12 1 1 0.000000 -6.734000 -4.849000 6.197000 # A 
13 1 1 0.000000 -6.047000 -6.993000 6.143000 # A 
14 1 1 0.000000 -5.284000 -6.300000 7.446000 # A 
15 1 1 0.000000 -5.892000 -5.536000 8.982000 # A 
16 1 1 0.000000 -4.191000 -5.964000 7.875000 # A 
17 1 1 0.000000 -5.716000 -5.423000 8.930000 # A 
18 1 1 0.000000 -5.331000 -4.953000 7.391000 # A 
19 1 1 0.000000 -5.406000 -6.431000 5.626000 # A 
20 1 1 0.000000 -6.224000 -7.852000 7.051000 # A 
21 1 1 0.000000 -4.933000 -6.778000 5.716000 # A 
22 1 1 0.000000 -6.121000 -7.224000 7.248000 # A 
23 1 1 0.000000 -6.824000 -7.150000 9.169000 # A 
24 1 1 0.000000 -7.485000 -6.045000 7.511000 # A 
25 1 1 0.000000 -8.440000 -7.601000 6.504000 # A 
26 1 1 0.000000 -7.372000 -6.067000 6.423000 # A 
27 1 1 0.000000 -7.629000 -4.078000 5.644000 # A 
28 1 1 0.000000 -9.216000 -4.156000 6.520000 # A 
29 1 1 0.000000 -7.626000 -4.372000 5.406000 # A 
30 1 1 0.000000 -9.453000 -4.204000 6.430000 # A 
31 1 1 0.000000 -11.015000 -5.350000 5.334000 # A 
32 1 1 0.000000 -9.334000 -4.711000 4.327000 # A 
33 1 1 0.000000 -7.942000 -5.277000 5.776000 # A 
34 1 1 0.000000 -9.339000 -4.723000 4.384000 # A 
35 1 1 0.000000 -8.544000 -3.159000 5.114000 # A 
36 1 1 0.000000 -6.518000 -3.997000 5.293000 # A 
37 1 1 0.000000 -5.446000 -3.501000 3.667000 # A 
38 1 1 0.000000 -6.648000 -3.512000 2.090000 # A 
39 1 1 0.000000 -5.973000 -4.538000 3.672000 # A 
40 1 1 0.000000 -6.403000 -3.864000 1.960000 # A 
41 1 1 0.000000 -7.059000 -5.399000 3.225000 # A 
42 1 1 0.000000 -5.663000 -4.054000 2.527000 # A 
43 1 1 0.000000 -4.399000 -3.282000 3.966000 # A 
44 1 1 0.000000 -2.332000 -3.226000 4.238000 # A 
45 1 1 0.000000 -1.590000 -1.662000 4.755000 # A 
46 1 1 0.000000 -2.633000 -0.976000 6.270000 # A 
47 1 1 0.000000 -1.662000 -1.639000 4.576000 # A 
48 1 1 0.000000 -2.357000 -1.029000 6.103000 # A 
49 1 1 0.000000 -3.851000 -0.362000 4.931000 # A 
50 1 1 0.000000 -3.676000 -1.616000 6.199000 # A 
51 1 1 0.000000 -2.527000 -0.699000 4.898000 # A 
52 1 1 0.000000 -2.018000 0.307000 6.577000 # A 
53 1 1 0.000000 -2.444000 -0.495000 4.898000 # A 
54 1 1 0.000000 -1.799000 0.098000 6.775000 # A 
55 1 1 0.000000 -2.893000 -1.029000 7.852000 # A 
56 1 1 0.000000 -3.134000 -0.147000 5.823000 # A 
57 1 1 0.000000 -1.640000 0.319000 4.945000 # A 
58 1 1 0.000000 -2.696000 -1.050000 3.935000 # A 
59 1 1 0.000000 -3.064000 -2.545000 5.232000 # A 
60 1 1 0.000000 -2.010000 -3.707000 6.487000 # A 
61 1 1 0.000000 -0.489000 -5.075000 5.732000 # A 
62 1 1 0.000000 -1.156000 -5.411000 3.718000 # A 
63 1 1 0.000000 0.415000 -4.920000 2.894000 # A 
64 1 1 0.000000 -0.494000 -3.593000 1.833000 # A 
65 1 1 0.000000 0.313000 -4.700000 3.136000 # A 
66 1 1 0.000000 -1.557000 -3.950000 2.990000 # A 
67 1 1 0.000000 -3.263000 -4.742000 2.348000 # A 
68 1 1 0.000000 -2.084000 -6.220000 3.461000 # A 
69 1 1 0.000000 -2.621000 -5.984000 1.499000 # A 
70 1 1 0.000000 -3.422000 -7.255000 2.362000 # A 
71 1 1 0.000000 -3.621000 -9.109000 1.569000 # A 
72 1 1 0.000000 -2.074000 -7.931000 2.152000 # A 
73 1 1 0.000000 -2.556000 -8.768000 -0.040000 # A 
74 1 1 0.000000 -3.664000 -7.938000 1.377000 # A 
75 1 1 0.000000 -2.966000 -7.959000 3.288000 # A 
76 1 1 0.000000 -4.477000 -8.259000 4.838000 # A 
77 1 1 0.000000 -3.066000 -9.506000 4.647000 # A 
78 1 1 0.000000 -2.794000 -10.656000 6.167000 # A 
79 1 1 0.000000 -3.308000 -9.149000 4.814000 # A 
80 1 1 0.000000 -2.019000 -8.739000 3.370000 # A 
81 1 1 0.000000 -1.643000 -9.942000 1.863000 # A 
82 1 1 0.000000 -1.910000 -8.742000 3.435000 # A 
83 1 1 0.000000 -2.189000 -7.497000 4.082000 # A 
84 1 1 0.000000 -2.810000 -5.418000 3.594000 # A 
85 1 1 0.000000 -2.842000 -7.499000 4.310000 # A 
86 1 1 0.000000 -3.209000 -5.906000 3.765000 # A 
87 1 1 0.000000 -2.442000 -4.344000 4.352000 # A 
88 1 1 0.000000 -1.547000 -6.412000 4.391000 # A 
89 1 1 0.000000 -1.849000 -8.072000 5.598000 # A 
90 1 1 0.000000 -0.521000 -8.676000 4.166000 # A 
91 1 1 0.000000 -2.273000 -8.760000 4.488000 # A 
92 1 1 0.000000 -2.884000 -8.744000 2.581000 # A 
93 1 1 0.000000 -1.698000 -9.480000 4.149000 # A 
94 1 1 0.000000 -1.344000 -8.964000 6.041000 # A 
95 1 1 0.000000 -1.425000 -9.680000 4.118000 # A 
96 1 1 0.000000 -0.335000 -10.939000 3.579000 # A 
97 1 1 0.000000 1.166000 -9.481000 4.077000 # A 
98 1 1 0.000000 0.102000 -10.906000 3.540000 # A 
99 1 1 0.000000 1.914000 -11.256000 4.030000 # A 
100 1 1 0.000000 2.258000 -11.724000 2.411000 # A 
101 1 1 0.000000 0.760000 -11.807000 1.078000 # A 
102 1 1 0.000000 -1.036000 -11.122000 2.115000 # A 
103 1 1 0.000000 -0.021000 -9.397000 1.702000 # A 
104 1 1 0.000000 -0.620000 -8.645000 0.156000 # A 
105 1 1 0.000000 0.179000 -9.414000 1.453000 # A 
106 1 1 0.000000 2.343000 -9.343000 1.644000 # A 
107 1 1 0.000000 1.631000 -8.931000 -0.199000 # A 
108 1 1 0.000000 0.033000 -7.595000 0.292000 # A 
109 1 1 0.000000 0.463000 -8.018000 2.184000 # A 
110 1 1 0.000000 -1.032000 -8.789000 1.136000 # A 
111 1 1 0.000000 -1.282000 -9.262000 -0.616000 # A 
112 1 1 0.000000 -1.424000 -8.759000 1.338000 # A 
113 1 1 0.000000 -1.210000 -6.699000 0.789000 # A 
114 1 1 0.000000 -2.211000 -8.479000 1.006000 # A 
115 1 1 0.000000 -1.328000 -6.861000 0.684000 # A 
116 1 1 0.000000 -1.347000 -5.846000 2.762000 # A 
117 1 1 0.000000 -0.989000 -5.371000 4.828000 # A 
118 1 1 0.000000 -2.838000 -4.710000 5.421000 # A 
119 1 1 0.000000 -1.150000 -5.055000 4.716000 # A 
120 1 1 0.000000 0.536000 -3.999000 4.626000 # A 
121 1 1 0.000000 -0.506000 -4.027000 6.106000 # A 
122 1 1 0.000000 0.822000 -4.132000 4.540000 # A 
123 1 1 0.000000 -0.961000 -3.859000 5.654000 # A 
124 1 1 0.000000 -2.044000 -5.535000 6.505000 # A 
125 1 1 0.000000 -2.015000 -4.564000 8.397000 # A 
126 1 1 0.000000 -0.377000 -4.936000 6.994000 # A 
127 1 1 0.000000 0.655000 -5.612000 8.764000 # A 
128 1 1 0.000000 0.314000 -4.870000 6.766000 # A 
129 1 1 0.000000 0.440000 -5.345000 8.419000 # A 
130 1 1 0.000000 -1.005000 -7.032000 8.331000 # A 
131 1 1 0.000000 -1.623000 -7.545000 6.548000 # A 
132 1 1 0.000000 -1.292000 -7.347000 8.521000 # A 
133 1 1 0.000000 -1.687000 -7.766000 6.745000 # A 
134 1 1 0.000000 -2.117000 -9.736000 6.419000 # A 
135 1 1 0.000000 -3.306000 -7.921000 5.900000 # A 
136 1 1 0.000000 -5.351000 -7.879000 5.635000 # A 
137 1 1 0.000000 -6.318000 -6.436000 4.829000 # A 
138 1 1 0.000000 -8.252000 -7.060000 4.027000 # A 
139 1 1 0.000000 -8.581000 -9.009000 3.145000 # A 
140 1 1 0.000000 -8.053000 -7.112000 2.518000 # A 
141 1 1 0.000000 -7.186000 -6.105000 4.058000 # A 
142 1 1 0.000000 -8.128000 -7.093000 2.518000 # A 
143 1 1 0.000000 -8.710000 -9.053000 2.118000 # A 
144 1 1 0.000000 -8.640000 -7.112000 1.732000 # A 
145 1 1 0.000000 -8.379000 -8.638000 2.171000 # A 
146 1 1 0.000000 -8.824000 -10.391000 3.165000 # A 
147 1 1 0.000000 -8.764000 -10.592000 1.320000 # A 
148 1 1 0.000000 -9.560000 -11.691000 -0.222000 # A 
149 1 1 0.000000 -10.960000 -12.380000 1.525000 # A 
150 1 1 0.000000 -12.280000 -13.822000 1.660000 # A 
151 1 1 0.000000 -10.796000 -12.362000 1.697000 # A 
152 1 1 0.000000 -12.739000 -13.130000 1.350000 # A 
153 1 1 0.000000 -13.865000 -12.990000 3.069000 # A 
154 1 1 0.000000 -13.279000 -13.512000 1.231000 # A 
155 1 1 0.000000 -14.654000 -13.937000 2.574000 # A 
156 1 1 0.000000 -14.929000 -13.275000 4.588000 # A 
157 1 1 0.000000 -13.076000 -13.765000 5.420000 # A 
158 1 1 0.000000 -13.447000 -13.388000 7.377000 # A 
159 1 1 0.000000 -12.169000 -12.626000 8.828000 # A 
160 1 1 0.000000 -13.322000 -11.323000 8.699000 # A 
161 1 1 0.000000 -13.543000 -13.058000 8.954000 # A 
162 1 1 0.000000 -12.103000 -14.009000 9.300000 # A 
163 1 1 0.000000 -10.438000 -12.748000 8.859000 # A 
164 1 1 0.000000 -9.416000 -11.353000 9.268000 # A 
165 1 1 0.000000 -8.574000 -9.826000 8.625000 # A 
166 1 1 0.000000 -8.521000 -7.802000 9.342000 # A 
167 1 1 0.000000 -8.947000 -7.237000 7.443000 # A 
168 1 1 0.000000 -10.161000 -8.742000 7.660000 # A 
169 1 1 0.000000 -8.826000 -7.306000 7.452000 # A 
170 1 1 0.000000 -8.035000 -6.619000 5.860000 # A 
171 1 1 0.000000 -8.877000 -5.992000 4.382000 # A 
172 1 1 0.000000 -10.708000 -5.729000 3.281000 # A 
173 1 1 0.000000 -9.121000 -5.853000 4.549000 # A 
174 1 1 0.000000 -9.953000 -7.796000 3.947000 # A 
175 1 1 0.000000 -11.539000 -9.008000 3.110000 # A 
176 1 1 0.000000 -9.906000 -8.749000 3.883000 # A 
177 1 1 0.000000 -9.358000 -7.644000 4.901000 # A 
178 1 1 0.000000 -9.659000 -7.605000 2.949000 # A 
179 1 1 0.000000 -9.047000 -7.865000 4.752000 # A 
180 1 1 0.000000 -7.429000 -7.729000 5.974000 # A 
181 1 1 0.000000 -7.410000 -6.213000 5.129000 # A 
182 1 1 0.000000 -7.272000 -7.921000 5.811000 # A 
183 1 1 0.000000 -8.161000 -8.892000 7.664000 # A 
184 1 1 0.000000 -7.941000 -11.079000 8.117000 # A 
185 1 1 0.000000 -8.931000 -10.345000 9.560000 # A 
186 1 1 0.000000 -7.603000 -10.743000 7.700000 # A 
187 1 1 0.000000 -7.769000 -12.482000 8.848000 # A 
188 1 1 0.000000 -6.454000 -12.078000 7.692000 # A 
189 1 1 0.000000 -8.173000 -11.117000 6.961000 # A 
190 1 1 0.000000 -6.864000 -9.970000 6.279000 # A 
191 1 1 0.000000 -8.228000 -11.260000 7.092000 # A 
192 1 1 0.000000 -8.288000 -9.994000 5.492000 # A 
193 1 1 0.000000 -7.455000 -8.760000 4.208000 # A 
194 1 1 0.000000 -6.298000 -9.220000 5.887000 # A 
195 1 1 0.000000 -7.555000 -8.509000 4.558000 # A 
196 1 1 0.000000 -6.232000 -7.497000 5.056000 # A 
197 1 1 0.000000 -6.253000 -9.061000 3.924000 # A 
198 1 1 0.000000 -7.410000 -7.690000 3.108000 # A 
199 1 1 0.000000 -6.399000 -8.598000 4.344000 # A 
200 1 1 0.000000 -5.012000 -9.974000 3.908000 # A 
201 1 1 0.000000 -5.707000 -8.119000 4.377000 # A 
202 1 1 0.000000 -4.417000 -7.051000 3.188000 # A 
203 1 1 0.000000 -3.130000 -5.795000 2.612000 # A 
204 1 1 0.000000 -2.773000 -5.102000 0.888000 # A 
205 1 1 0.000000 -2.236000 -5.426000 2.476000 # A 
206 1 1 0.000000 -0.405000 -6.243000 2.732000 # A 
207 1 1 0.000000 0.781000 -5.011000 1.739000 # A 
208 1 1 0.000000 -0.340000 -6.187000 2.767000 # A 
209 1 1 0.000000 1.039000 -4.997000 1.865000 # A 
210 1 1 0.000000 0.124000 -3.525000 2.961000 # A 
211 1 1 0.000000 1.692000 -5.048000 2.736000 # A 
212 1 1 0.000000 3.528000 -5.049000 2.615000 # A 
213 1 1 0.000000 2.303000 -5.668000 4.265000 # A 
214 1 1 0.000000 4.148000 -6.083000 4.692000 # A 
215 1 1 0.000000 2.503000 -5.052000 4.090000 # A 
216 1 1 0.000000 0.912000 -6.350000 4.331000 # A 
217 1 1 0.000000 0.680000 -8.425000 3.806000 # A 
218 1 1 0.000000 -0.800000 -7.848000 2.108000 # A 
219 1 1 0.000000 0.394000 -7.709000 3.741000 # A 
220 1 1 0.000000 -0.016000 -5.677000 3.774000 # A 
221 1 1 0.000000 -0.540000 -3.712000 4.705000 # A 
222 1 1 0.000000 0.975000 -3.157000 3.495000 # A 
223 1 1 0.000000 3.145000 -3.525000 4.071000 # A 
224 1 1 0.000000 4.284000 -1.974000 3.392000 # A 
225 1 1 0.000000 5.209000 -0.092000 3.475000 # A 
226 1 1 0.000000 4.298000 -1.618000 2.791000 # A 
227 1 1 0.000000 5.801000 -0.819000 1.638000 # A 
228 1 1 0.000000 5.381000 0.635000 2.783000 # A 
229 1 1 0.000000 4.809000 2.447000 3.857000 # A 
230 1 1 0.000000 5.493000 0.825000 2.789000 # A 
231 1 1 0.000000 5.115000 -1.084000 3.309000 # A 
232 1 1 0.000000 4.424000 -2.517000 4.586000 # A 
233 1 1 0.000000 5.633000 -2.776000 5.950000 # A 
234 1 1 0.000000 4.455000 -3.016000 4.147000 # A 
235 1 1 0.000000 4.156000 -1.244000 4.724000 # A 
236 1 1 0.000000 2.066000 -1.051000 4.365000 # A 
237 1 1 0.000000 3.215000 -2.471000 5.599000 # A 
238 1 1 0.000000 2.400000 -4.230000 6.285000 # A 
239 1 1 0.000000 3.352000 -2.577000 6.301000 # A 
240 1 1 0.000000 2.622000 -4.093000 5.986000 # A 
241 1 1 0.000000 0.751000 -4.654000 5.447000 # A 
242 1 1 0.000000 -0.158000 -5.820000 6.354000 # A 
243 1 1 0.000000 0.185000 -7.565000 5.656000 # A 
244 1 1 0.000000 0.896000 -5.706000 6.170000 # A 
245 1 1 0.000000 -1.012000 -6.236000 5.801000 # A 
246 1 1 0.000000 -2.904000 -6.718000 4.915000 # A 
247 1 1 0.000000 -2.328000 -7.064000 2.838000 # A 
248 1 1 0.000000 -3.135000 -6.714000 1.001000 # A 
249 1 1 0.000000 -2.323000 -7.036000 2.883000 # A 
250 1 1 0.000000 -3.137000 -7.029000 1.236000 # A 
251 1 1 0.000000 -4.813000 -8.257000 1.433000 # A 
252 1 1 0.000000 -6.054000 -7.741000 0.516000 # A 
253 1 1 0.000000 -4.161000 -7.858000 0.114000 # A 
254 1 1 0.000000 -2.470000 -6.534000 -0.157000 # A 
255 1 1 0.000000 -1.452000 -5.495000 0.989000 # A 
256 1 1 0.000000 -2.516000 -6.680000 -0.208000 # A 
257 1 1 0.000000 -1.451000 -4.992000 0.361000 # A 
258 1 1 0.000000 0.360000 -4.259000 0.560000 # A 
259 1 1 0.000000 0.914000 -3.132000 2.171000 # A 
260 1 1 0.000000 2.008000 -3.696000 0.658000 # A 
261 1 1 0.000000 0.887000 -2.673000 2.085000 # A 
262 1 1 0.000000 -0.217000 -3.111000 3.935000 # A 
263 1 1 0.000000 1.723000 -3.205000 4.277000 # A 
264 1 1 0.000000 1.195000 -1.635000 4.801000 # A 
265 1 1 0.000000 0.098000 -2.914000 6.254000 # A 
266 1 1 0.000000 1.487000 -1.656000 5.458000 # A 
267 1 1 0.000000 0.203000 -2.711000 6.530000 # A 
268 1 1 0.000000 1.614000 -2.543000 5.208000 # A 
269 1 1 0.000000 1.125000 -1.888000 3.416000 # A 
270 1 1 0.000000 2.684000 -3.171000 3.166000 # A 
271 1 1 0.000000 2.626000 -2.001000 4.755000 # A 
272 1 1 0.000000 2.682000 -4.007000 4.887000 # A 
273 1 1 0.000000 3.488000 -2.538000 3.940000 # A 
274 1 1 0.000000 2.365000 -4.256000 4.690000 # A 
275 1 1 0.000000 2.414000 -5.660000 5.984000 # A 
276 1 1 0.000000 1.489000 -6.714000 5.776000 # A 
277 1 1 0.000000 2.759000 -5.191000 5.810000 # A 
278 1 1 0.000000 1.548000 -6.667000 5.258000 # A 
279 1 1 0.000000 1.087000 -8.595000 5.176000 # A 
280 1 1 0.000000 2.309000 -6.662000 5.001000 # A 
281 1 1 0.000000 0.814000 -8.137000 4.871000 # A 
282 1 1 0.000000 -0.033000 -6.136000 5.175000 # A 
283 1 1 0.000000 -0.526000 -4.548000 3.945000 # A 
284 1 1 0.000000 0.141000 -6.013000 4.798000 # A 
285 1 1 0.000000 -0.687000 -4.508000 3.874000 # A 
286 1 1 0.000000 -2.414000 -5.516000 4.631000 # A 
287 1 1 0.000000 -1.378000 -4.010000 4.175000 # A 
288 1 1 0.000000 -2.471000 -5.746000 5.106000 # A 
289 1 1 0.000000 -3.672000 -4.627000 4.330000 # A 
290 1 1 0.000000 -4.165000 -6.586000 4.155000 # A 
291 1 1 0.000000 -6.055000 -7.185000 3.360000 # A 
292 1 1 0.000000 -4.230000 -7.284000 4.428000 # A 
293 1 1 0.000000 -6.002000 -7.589000 3.501000 # A 
294 1 1 0.000000 -6.962000 -7.608000 1.618000 # A 
295 1 1 0.000000 -6.267000 -8.424000 2.927000 # A 
296 1 1 0.000000 -5.927000 -8.678000 0.757000 # A 
297 1 1 0.000000 -6.847000 -8.750000 2.688000 # A 
298 1 1 0.000000 -7.789000 -8.851000 1.159000 # A 
299 1 1 0.000000 -6.929000 -9.401000 2.647000 # A 
300 1 1 0.000000 -7.921000 -8.163000 1.459000 # A 
301 1 1 0.000000 -9.325000 -6.454000 1.133000 # A 
302 1 1 0.000000 -10.550000 -6.854000 -0.431000 # A 
303 1 1 0.000000 -10.551000 -8.677000 -1.630000 # A 
304 1 1 0.000000 -8.529000 -9.340000 -1.836000 # A 
305 1 1 0.000000 -10.053000 -8.219000 -2.142000 # A 
306 1 1 0.000000 -10.525000 -10.126000 -1.575000 # A 
307 1 1 0.000000 -11.689000 -11.058000 -2.669000 # A 
308 1 1 0.000000 -11.506000 -12.153000 -4.473000 # A 
309 1 1 0.000000 -11.314000 -11.457000 -2.923000 # A 
310 1 1 0.000000 -11.156000 -9.565000 -2.396000 # A 
311 1 1 0.000000 -9.717000 -9.833000 -3.000000 # A 
312 1 1 0.000000 -7.804000 -8.842000 -2.972000 # A 
313 1 1 0.000000 -9.512000 -9.815000 -2.601000 # A 
314 1 1 0.000000 -7.443000 -8.932000 -2.596000 # A 
315 1 1 0.000000 -8.752000 -7.495000 -3.525000 # A 
316 1 1 0.000000 -9.295000 -7.626000 -1.693000 # A 
317 1 1 0.000000 -7.612000 -6.803000 -1.259000 # A 
318 1 1 0.000000 -8.963000 -8.415000 -2.022000 # A 
319 1 1 0.000000 -9.752000 -9.644000 -0.567000 # A 
320 1 1 0.000000 -8.633000 -8.021000 -0.714000 # A 
321 1 1 0.000000 -10.513000 -8.082000 0.191000 # A 
322 1 1 0.000000 -11.567000 -9.186000 1.236000 # A 
323 1 1 0.000000 -12.217000 -8.273000 2.993000 # A 
324 1 1 0.000000 -11.208000 -6.788000 1.699000 # A 
325 1 1 0.000000 -10.591000 -8.535000 2.574000 # A 
326 1 1 0.000000 -10.446000 -6.549000 1.965000 # A 
327 1 1 0.000000 -10.259000 -6.457000 4.027000 # A 
328 1 1 0.000000 -9.953000 -6.818000 1.810000 # A 
329 1 1 0.000000 -8.695000 -5.511000 1.547000 # A 
330 1 1 0.000000 -8.372000 -6.076000 3.064000 # A 
331 1 1 0.000000 -8.419000 -4.310000 3.967000 # A 
332 1 1 0.000000 -8.013000 -6.021000 3.266000 # A 
333 1 1 0.000000 -8.236000 -4.432000 4.337000 # A 
334 1 1 0.000000 -7.731000 -4.786000 2.258000 # A 
335 1 1 0.000000 -7.456000 -4.716000 4.328000 # A 
336 1 1 0.000000 -7.550000 -4.730000 2.691000 # A 
337 1 1 0.000000 -7.151000 -3.695000 4.057000 # A 
338 1 1 0.000000 -6.030000 -2.353000 3.453000 # A 
339 1 1 0.000000 -7.557000 -3.549000 2.481000 # A 
340 1 1 0.000000 -5.899000 -2.621000 3.547000 # A 
341 1 1 0.000000 -7.669000 -3.637000 2.877000 # A 
342 1 1 0.000000 -7.889000 -3.852000 0.976000 # A 
343 1 1 0.000000 -6.747000 -5.734000 1.224000 # A 
344 1 1 0.000000 -8.329000 -6.361000 0.645000 # A 
345 1 1 0.000000 -7.214000 -5.666000 2.184000 # A 
346 1 1 0.000000 -7.959000 -6.660000 0.714000 # A 
347 1 1 0.000000 -8.190000 -5.098000 -0.638000 # A 
348 1 1 0.000000 -9.352000 -4.666000 -2.043000 # A 
349 1 1 0.000000 -9.504000 -5.797000 -0.493000 # A 
350 1 1 0.000000 -9.231000 -4.453000 -1.669000 # A 
351 1 1 0.000000 -9.164000 -5.866000 -0.621000 # A 
352 1 1 0.000000 -7.106000 -5.700000 -0.571000 # A 
353 1 1 0.000000 -7.202000 -7.630000 -0.788000 # A 
354 1 1 0.000000 -6.753000 -5.597000 -0.477000 # A 
355 1 1 0.000000 -5.337000 -6.718000 -0.337000 # A 
356 1 1 0.000000 -7.007000 -8.049000 0.216000 # A 
357 1 1 0.000000 -6.012000 -6.550000 1.273000 # A 
358 1 1 0.000000 -5.835000 -4.861000 0.759000 # A 
359 1 1 0.000000 -5.959000 -6.784000 1.338000 # A 
360 1 1 0.000000 -5.649000 -4.934000 0.989000 # A 
361 1 1 0.000000 -4.705000 -4.415000 2.820000 # A 
362 1 1 0.000000 -3.939000 -4.626000 0.769000 # A 
363 1 1 0.000000 -5.395000 -3.898000 -0.701000 # A 
364 1 1 0.000000 -5.947000 -3.626000 -2.589000 # A 
365 1 1 0.000000 -5.605000 -5.338000 -1.777000 # A 
366 1 1 0.000000 -6.157000 -6.923000 -2.521000 # A 
367 1 1 0.000000 -4.776000 -8.219000 -3.067000 # A 
368 1 1 0.000000 -5.775000 -6.787000 -3.013000 # A 
369 1 1 0.000000 -4.763000 -7.437000 -1.848000 # A 
370 1 1 0.000000 -3.058000 -7.680000 -0.791000 # A 
371 1 1 0.000000 -4.712000 -8.039000 -2.017000 # A 
372 1 1 0.000000 -4.428000 -9.568000 -0.337000 # A 
373 1 1 0.000000 -5.361000 -11.423000 0.181000 # A 
374 1 1 0.000000 -5.288000 -9.378000 0.495000 # A 
375 1 1 0.000000 -5.644000 -8.359000 2.135000 # A 
376 1 1 0.000000 -4.845000 -8.971000 0.461000 # A 
377 1 1 0.000000 -5.106000 -9.425000 2.603000 # A 
378 1 1 0.000000 -3.627000 -9.252000 3.543000 # A 
379 1 1 0.000000 -5.178000 -8.217000 3.132000 # A 
380 1 1 0.000000 -3.659000 -9.751000 3.290000 # A 
381 1 1 0.000000 -4.521000 -7.940000 3.680000 # A 
382 1 1 0.000000 -5.401000 -6.243000 4.291000 # A 
383 1 1 0.000000 -5.521000 -7.197000 2.348000 # A 
384 1 1 0.000000 -5.456000 -6.696000 4.218000 # A 
385 1 1 0.000000 -5.226000 -7.451000 2.419000 # A 
386 1 1 0.000000 -4.400000 -5.704000 3.000000 # A 
387 1 1 0.000000 -4.123000 -3.609000 3.013000 # A 
388 1 1 0.000000 -3.754000 -2.113000 4.427000 # A 
389 1 1 0.000000 -5.215000 -3.334000 5.237000 # A 
390 1 1 0.000000 -4.784000 -4.878000 3.744000 # A 
391 1 1 0.000000 -5.707000 -6.224000 2.819000 # A 
392 1 1 0.000000 -4.259000 -5.607000 1.783000 # A 
393 1 1 0.000000 -6.349000 -5.004000 1.882000 # A 
394 1 1 0.000000 -7.663000 -5.066000 0.492000 # A 
395 1 1 0.000000 -8.640000 -3.639000 -0.580000 # A 
396 1 1 0.000000 -7.760000 -4.957000 0.702000 # A 
397 1 1 0.000000 -8.944000 -3.673000 1.489000 # A 
398 1 1 0.000000 -8.749000 -3.654000 3.173000 # A 
399 1 1 0.000000 -7.931000 -2.977000 1.664000 # A 
400 1 1 0.000000 -7.422000 -1.462000 0.232000 # A 
401 1 1 0.000000 -6.046000 -2.915000 -0.263000 # A 
402 1 1 0.000000 -7.490000 -1.311000 0.264000 # A 
403 1 1 0.000000 -6.646000 0.541000 -0.257000 # A 
404 1 1 0.000000 -7.075000 -0.410000 1.429000 # A 
405 1 1 0.000000 -8.300000 -0.853000 -0.337000 # A 
406 1 1 0.000000 -7.254000 -0.940000 1.363000 # A 
407 1 1 0.000000 -9.351000 -1.131000 1.008000 # A 
408 1 1 0.000000 -8.455000 -2.673000 0.361000 # A 
409 1 1 0.000000 -8.217000 -1.516000 1.620000 # A 
410 1 1 0.000000 -8.177000 -2.419000 -0.057000 # A 
411 1 1 0.000000 -7.016000 -3.623000 -0.705000 # A 
412 1 1 0.000000 -7.399000 -4.127000 -2.676000 # A 
413 1 1 0.000000 -7.149000 -6.095000 -3.592000 # A 
414 1 1 0.000000 -8.058000 -4.545000 -2.661000 # A 
415 1 1 0.000000 -7.051000 -6.103000 -3.257000 # A 
416 1 1 0.000000 -8.871000 -6.025000 -2.205000 # A 
417 1 1 0.000000 -10.461000 -5.634000 -3.628000 # A 
418 1 1 0.000000 -9.092000 -5.901000 -2.077000 # A 
419 1 1 0.000000 -11.037000 -5.197000 -1.194000 # A 
420 1 1 0.000000 -9.372000 -4.722000 -0.549000 # A 
421 1 1 0.000000 -8.276000 -3.400000 -1.967000 # A 
422 1 1 0.000000 -7.833000 -4.145000 -0.182000 # A 
423 1 1 0.000000 -8.490000 -3.024000 -1.814000 # A 
424 1 1 0.000000 -10.120000 -3.875000 -0.681000 # A 
425 1 1 0.000000 -8.525000 -2.792000 -1.106000 # A 
426 1 1 0.000000 -8.935000 -1.610000 0.206000 # A 
427 1 1 0.000000 -7.576000 -2.491000 -1.250000 # A 
428 1 1 0.000000 -5.842000 -2.047000 -1.370000 # A 
429 1 1 0.000000 -7.739000 -1.987000 -0.870000 # A 
430 1 1 0.000000 -8.837000 -2.410000 -2.538000 # A 
431 1 1 0.000000 -6.973000 -3.280000 -2.153000 # A 
432 1 1 0.000000 -6.755000 -5.253000 -2.247000 # A 
433 1 1 0.000000 -5.940000 -4.548000 -3.496000 # A 
434 1 1 0.000000 -6.764000 -4.946000 -5.269000 # A 
435 1 1 0.000000 -7.924000 -4.831000 -6.931000 # A 
436 1 1 0.000000 -8.479000 -5.436000 -8.716000 # A 
437 1 1 0.000000 -6.933000 -6.593000 -8.394000 # A 
438 1 1 0.000000 -5.302000 -6.569000 -9.656000 # A 
439 1 1 0.000000 -3.342000 -6.101000 -10.012000 # A 
440 1 1 0.000000 -3.795000 -6.268000 -11.915000 # A 
441 1 1 0.000000 -3.493000 -5.637000 -10.053000 # A 
442 1 1 0.000000 -2.048000 -6.723000 -10.440000 # A 
443 1 1 0.000000 -2.853000 -5.154000 -9.902000 # A 
444 1 1 0.000000 -2.733000 -6.844000 -9.019000 # A 
445 1 1 0.000000 -2.692000 -6.268000 -7.378000 # A 
446 1 1 0.000000 -2.511000 -5.125000 -6.238000 # A 
447 1 1 0.000000 -2.807000 -4.869000 -8.240000 # A 
448 1 1 0.000000 -2.533000 -5.335000 -6.396000 # A 
449 1 1 0.000000 -3.420000 -3.762000 -6.716000 # A 
450 1 1 0.000000 -3.760000 -5.731000 -6.386000 # A 
451 1 1 0.000000 -2.722000 -4.067000 -5.863000 # A 
452 1 1 0.000000 -1.964000 -5.871000 -5.665000 # A 
453 1 1 0.000000 -2.201000 -3.921000 -5.499000 # A 
454 1 1 0.000000 -0.709000 -3.520000 -4.139000 # A 
455 1 1 0.000000 -1.542000 -5.474000 -4.094000 # A 
456 1 1 0.000000 -1.812000 -5.763000 -1.939000 # A 
457 1 1 0.000000 -2.033000 -6.849000 -3.470000 # A 
458 1 1 0.000000 -1.703000 -5.979000 -1.490000 # A 
459 1 1 0.000000 -1.759000 -3.789000 -2.298000 # A 
460 1 1 0.000000 -2.130000 -5.583000 -2.872000 # A 
461 1 1 0.000000 -1.501000 -7.263000 -1.821000 # A 
462 1 1 0.000000 -3.234000 -6.770000 -2.745000 # A 
463 1 1 0.000000 -1.523000 -7.187000 -1.698000 # A 
464 1 1 0.000000 -3.604000 -6.796000 -2.200000 # A 
465 1 1 0.000000 -3.081000 -7.424000 -4.067000 # A 
466 1 1 0.000000 -2.260000 -6.795000 -2.463000 # A 
467 1 1 0.000000 -2.485000 -4.683000 -2.052000 # A 
468 1 1 0.000000 -3.035000 -3.855000 -3.804000 # A 
469 1 1 0.000000 -2.455000 -2.453000 -4.688000 # A 
470 1 1 0.000000 -3.055000 -3.894000 -3.749000 # A 
471 1 1 0.000000 -4.788000 -3.174000 -2.849000 # A 
472 1 1 0.000000 -3.969000 -1.803000 -4.450000 # A 
473 1 1 0.000000 -5.878000 -1.513000 -5.172000 # A 
474 1 1 0.000000 -6.923000 -3.333000 -4.664000 # A 
475 1 1 0.000000 -6.469000 -1.275000 -4.932000 # A 
476 1 1 0.000000 -7.116000 -3.216000 -4.806000 # A 
477 1 1 0.000000 -7.882000 -4.609000 -5.490000 # A 
478 1 1 0.000000 -8.387000 -3.418000 -6.755000 # A 
479 1 1 0.000000 -6.371000 -3.314000 -6.635000 # A 
480 1 1 0.000000 -5.253000 -2.182000 -7.592000 # A 
481 1 1 0.000000 -4.700000 -3.978000 -7.593000 # A 
482 1 1 0.000000 -4.544000 -4.428000 -9.330000 # A 
483 1 1 0.000000 -4.705000 -4.324000 -7.366000 # A 
484 1 1 0.000000 -4.186000 -5.014000 -9.221000 # A 
485 1 1 0.000000 -4.005000 -4.903000 -7.655000 # A 
486 1 1 0.000000 -4.016000 -6.426000 -8.663000 # A 
487 1 1 0.000000 -3.796000 -4.618000 -7.788000 # A 
488 1 1 0.000000 -4.383000 -3.155000 -9.251000 # A 
489 1 1 0.000000 -3.573000 -1.883000 -8.995000 # A 
490 1 1 0.000000 -4.579000 -3.507000 -8.575000 # A 
491 1 1 0.000000 -2.850000 -2.622000 -7.473000 # A 
492 1 1 0.000000 -1.501000 -3.845000 -8.210000 # A 
493 1 1 0.000000 -2.934000 -2.788000 -7.267000 # A 
494 1 1 0.000000 -1.629000 -4.119000 -8.381000 # A 
495 1 1 0.000000 -0.873000 -2.179000 -8.263000 # A 
496 1 1 0.000000 -0.422000 -0.393000 -7.452000 # A 
497 1 1 0.000000 -0.236000 -1.341000 -9.347000 # A 
498 1 1 0.000000 -1.733000 -0.557000 -8.272000 # A 
499 1 1 0.000000 -2.531000 0.633000 -7.453000 # A 
500 1 1 0.000000 -3.789000 -0.907000 -7.251000 # A 
501 1 1 0.000000 -2.885000 -1.482000 -5.501000 # A 
502 1 1 0.000000 -3.140000 -0.814000 -7.454000 # A 
503 1 1 0.000000 -4.534000 -1.587000 -6.493000 # A 
504 1 1 0.000000 -4.689000 -3.090000 -5.694000 # A 
505 1 1 0.000000 -4.648000 -1.356000 -6.856000 # A 
506 1 1 0.000000 -4.650000 -3.192000 -5.922000 # A 
507 1 1 0.000000 -5.442000 -4.601000 -6.223000 # A 
508 1 1 0.000000 -4.459000 -2.611000 -6.767000 # A 
509 1 1 0.000000 -5.620000 -4.107000 -6.545000 # A 
510 1 1 0.000000 -7.421000 -3.752000 -5.783000 # A 
511 1 1 0.000000 -5.718000 -2.913000 -5.638000 # A 
512 1 1 0.000000 -5.352000 -3.615000 -3.751000 # A 
513 1 1 0.000000 -6.115000 -2.916000 -5.358000 # A 
514 1 1 0.000000 -7.981000 -2.627000 -4.475000 # A 
515 1 1 0.000000 -6.395000 -3.933000 -5.370000 # A 
516 1 1 0.000000 -5.581000 -2.427000 -4.149000 # A 
517 1 1 0.000000 -6.791000 -1.469000 -2.860000 # A 
518 1 1 0.000000 -5.648000 -2.626000 -4.167000 # A 
519 1 1 0.000000 -4.840000 -4.547000 -4.662000 # A 
520 1 1 0.000000 -6.065000 -5.475000 -5.887000 # A 
521 1 1 0.000000 -4.516000 -5.980000 -4.839000 # A 
522 1 1 0.000000 -3.226000 -5.904000 -3.611000 # A 
523 1 1 0.000000 -4.233000 -5.883000 -5.226000 # A 
524 1 1 0.000000 -3.287000 -6.149000 -3.602000 # A 
525 1 1 0.000000 -4.652000 -5.217000 -2.408000 # A 
526 1 1 0.000000 -4.601000 -7.187000 -3.375000 # A 
527 1 1 0.000000 -5.016000 -5.274000 -2.669000 # A 
528 1 1 0.000000 -6.095000 -5.563000 -3.966000 # A 
529 1 1 0.000000 -8.003000 -4.937000 -4.317000 # A 
530 1 1 0.000000 -9.678000 -4.644000 -4.659000 # A 
531 1 1 0.000000 -7.933000 -4.123000 -3.723000 # A 
532 1 1 0.000000 -9.653000 -4.865000 -3.115000 # A 
533 1 1 0.000000 -8.557000 -3.340000 -3.054000 # A 
534 1 1 0.000000 -8.521000 -5.301000 -3.400000 # A 
535 1 1 0.000000 -8.450000 -6.163000 -5.424000 # A 
536 1 1 0.000000 -10.017000 -5.777000 -6.271000 # A 
537 1 1 0.000000 -10.438000 -7.043000 -7.662000 # A 
538 1 1 0.000000 -10.627000 -7.527000 -5.656000 # A 
539 1 1 0.000000 -9.924000 -6.740000 -7.210000 # A 
540 1 1 0.000000 -11.120000 -8.279000 -6.516000 # A 
541 1 1 0.000000 -10.335000 -7.805000 -4.595000 # A 
542 1 1 0.000000 -9.059000 -7.032000 -5.227000 # A 
543 1 1 0.000000 -8.153000 -6.840000 -7.104000 # A 
544 1 1 0.000000 -8.225000 -7.346000 -4.879000 # A 
545 1 1 0.000000 -9.842000 -5.903000 -4.779000 # A 
546 1 1 0.000000 -9.275000 -6.627000 -6.372000 # A 
547 1 1 0.000000 -10.654000 -6.313000 -5.355000 # A 
548 1 1 0.000000 -8.958000 -6.055000 -6.694000 # A 
549 1 1 0.000000 -8.814000 -5.013000 -5.159000 # A 
550 1 1 0.000000 -9.587000 -4.928000 -7.116000 # A 
551 1 1 0.000000 -10.987000 -5.488000 -8.427000 # A 
552 1 1 0.000000 -10.308000 -4.942000 -6.728000 # A 
553 1 1 0.000000 -10.702000 -4.899000 -4.972000 # A 
554 1 1 0.000000 -9.416000 -3.998000 -6.298000 # A 
555 1 1 0.000000 -8.516000 -2.109000 -6.638000 # A 
556 1 1 0.000000 -6.624000 -1.431000 -6.234000 # A 
557 1 1 0.000000 -6.468000 0.668000 -5.576000 # A 
558 1 1 0.000000 -8.095000 0.563000 -4.401000 # A 
559 1 1 0.000000 -6.592000 0.862000 -5.935000 # A 
560 1 1 0.000000 -7.866000 0.074000 -6.924000 # A 
561 1 1 0.000000 -7.141000 1.332000 -7.910000 # A 
562 1 1 0.000000 -7.548000 2.263000 -9.568000 # A 
563 1 1 0.000000 -6.879000 1.068000 -8.949000 # A 
564 1 1 0.000000 -5.864000 -0.600000 -9.399000 # A 
565 1 1 0.000000 -4.702000 -0.759000 -7.882000 # A 
566 1 1 0.000000 -5.308000 -0.976000 -5.981000 # A 
567 1 1 0.000000 -5.236000 -0.350000 -7.816000 # A 
568 1 1 0.000000 -5.864000 -0.318000 -6.011000 # A 
569 1 1 0.000000 -5.967000 1.650000 -6.108000 # A 
570 1 1 0.000000 -6.618000 3.656000 -5.608000 # A 
571 1 1 0.000000 -7.300000 2.000000 -5.368000 # A 
572 1 1 0.000000 -5.371000 2.536000 -6.328000 # A 
573 1 1 0.000000 -3.793000 2.396000 -5.089000 # A 
574 1 1 0.000000 -5.732000 2.841000 -6.117000 # A 
575 1 1 0.000000 -5.102000 1.415000 -5.332000 # A 
576 1 1 0.000000 -3.762000 0.391000 -4.819000 # A 
577 1 1 0.000000 -2.891000 1.312000 -6.432000 # A 