LAMMPS data file. CGCMM style. atom_style full generated by VMD/TopoTools v1.7 on Mon Aug 06 11:34:13 EDT 2018
 10000 atoms
 9999 bonds
 9998 angles
 0 dihedrals
 0 impropers
 1 atom types
 1 bond types
 1 angle types
 0 dihedral types
 0 improper types
 -18.526501 17.777500  xlo xhi
 -18.940000 18.144000  ylo yhi
 -19.278999 17.889000  zlo zhi

# Pair Coeffs
#
# 1  A

# Bond Coeffs
#
# 1  

# Angle Coeffs
#
# 1  A-A-A

 Masses

 1 1.000000 # A

 Atoms # full

1 1 1 0.000000 -11.124000 -5.338000 8.016000 # A 
2 1 1 0.000000 -10.540000 -3.552000 8.289000 # A 
3 1 1 0.000000 -12.478000 -2.830000 8.182000 # A 
4 1 1 0.000000 -12.367000 -4.706000 7.626000 # A 
5 1 1 0.000000 -14.603000 -4.202000 7.289000 # A 
6 1 1 0.000000 -13.030000 -5.387000 7.625000 # A 
7 1 1 0.000000 -11.834000 -3.738000 7.461000 # A 
8 1 1 0.000000 -13.646000 -2.926000 7.078000 # A 
9 1 1 0.000000 -15.195000 -2.057000 7.977000 # A 
10 1 1 0.000000 -14.594000 -3.876000 8.873000 # A 
11 1 1 0.000000 -13.341000 -2.372000 9.326000 # A 
12 1 1 0.000000 -14.212000 -4.160000 8.765000 # A 
13 1 1 0.000000 -12.274000 -3.977000 8.782000 # A 
14 1 1 0.000000 -13.683000 -3.556000 7.831000 # A 
15 1 1 0.000000 -12.232000 -3.264000 9.531000 # A 
16 1 1 0.000000 -12.926000 -5.090000 9.736000 # A 
17 1 1 0.000000 -12.445000 -3.526000 10.527000 # A 
18 1 1 0.000000 -13.329000 -4.582000 9.096000 # A 
19 1 1 0.000000 -12.196000 -3.930000 10.762000 # A 
20 1 1 0.000000 -13.069000 -2.705000 11.215000 # A 
21 1 1 0.000000 -14.201000 -1.251000 10.497000 # A 
22 1 1 0.000000 -14.709000 0.775000 10.526000 # A 
23 1 1 0.000000 -13.786000 -0.993000 10.587000 # A 
24 1 1 0.000000 -12.760000 -0.434000 8.640000 # A 
25 1 1 0.000000 -11.245000 0.823000 8.542000 # A 
26 1 1 0.000000 -12.542000 -0.430000 9.800000 # A 
27 1 1 0.000000 -10.595000 -0.782000 10.202000 # A 
28 1 1 0.000000 -9.916000 -2.705000 10.836000 # A 
29 1 1 0.000000 -11.117000 -3.609000 9.769000 # A 
30 1 1 0.000000 -10.797000 -1.569000 9.125000 # A 
31 1 1 0.000000 -10.666000 -1.552000 11.385000 # A 
32 1 1 0.000000 -12.569000 -1.983000 10.520000 # A 
33 1 1 0.000000 -12.223000 -0.396000 11.889000 # A 
34 1 1 0.000000 -11.394000 1.428000 11.807000 # A 
35 1 1 0.000000 -12.069000 1.025000 13.787000 # A 
36 1 1 0.000000 -10.261000 0.789000 12.765000 # A 
37 1 1 0.000000 -9.133000 1.971000 14.286000 # A 
38 1 1 0.000000 -8.801000 0.457000 13.179000 # A 
39 1 1 0.000000 -10.183000 -0.686000 12.493000 # A 
40 1 1 0.000000 -10.261000 1.063000 11.595000 # A 
41 1 1 0.000000 -9.797000 -0.958000 12.240000 # A 
42 1 1 0.000000 -7.920000 -1.493000 12.019000 # A 
43 1 1 0.000000 -7.868000 -3.372000 12.719000 # A 
44 1 1 0.000000 -8.540000 -5.146000 13.553000 # A 
45 1 1 0.000000 -8.265000 -3.026000 13.882000 # A 
46 1 1 0.000000 -6.404000 -2.828000 14.447000 # A 
47 1 1 0.000000 -7.161000 -1.187000 13.922000 # A 
48 1 1 0.000000 -6.291000 -1.209000 12.312000 # A 
49 1 1 0.000000 -5.501000 -1.851000 13.779000 # A 
50 1 1 0.000000 -5.766000 -3.674000 13.139000 # A 
51 1 1 0.000000 -5.074000 -1.731000 13.521000 # A 
52 1 1 0.000000 -5.621000 -3.218000 13.894000 # A 
53 1 1 0.000000 -4.205000 -2.386000 14.776000 # A 
54 1 1 0.000000 -3.943000 -3.247000 13.228000 # A 
55 1 1 0.000000 -5.422000 -3.783000 11.987000 # A 
56 1 1 0.000000 -3.786000 -4.872000 11.277000 # A 
57 1 1 0.000000 -4.609000 -3.293000 10.499000 # A 
58 1 1 0.000000 -4.962000 -5.320000 10.954000 # A 
59 1 1 0.000000 -4.316000 -7.260000 11.166000 # A 
60 1 1 0.000000 -4.884000 -5.863000 9.552000 # A 
61 1 1 0.000000 -6.457000 -4.746000 9.332000 # A 
62 1 1 0.000000 -7.460000 -5.759000 7.655000 # A 
63 1 1 0.000000 -9.241000 -4.892000 6.831000 # A 
64 1 1 0.000000 -11.264000 -4.534000 7.210000 # A 
65 1 1 0.000000 -9.972000 -4.788000 5.577000 # A 
66 1 1 0.000000 -10.662000 -3.831000 7.168000 # A 
67 1 1 0.000000 -9.650000 -2.002000 6.653000 # A 
68 1 1 0.000000 -11.291000 -2.602000 5.824000 # A 
69 1 1 0.000000 -12.639000 -3.526000 4.707000 # A 
70 1 1 0.000000 -14.431000 -3.433000 3.715000 # A 
71 1 1 0.000000 -12.342000 -3.633000 4.420000 # A 
72 1 1 0.000000 -14.151000 -3.020000 3.301000 # A 
73 1 1 0.000000 -15.019000 -1.826000 4.392000 # A 
74 1 1 0.000000 -13.283000 -1.556000 5.052000 # A 
75 1 1 0.000000 -13.057000 -3.130000 5.924000 # A 
76 1 1 0.000000 -14.821000 -4.254000 6.101000 # A 
77 1 1 0.000000 -14.808000 -5.813000 7.376000 # A 
78 1 1 0.000000 -15.419000 -4.113000 8.230000 # A 
79 1 1 0.000000 -14.179000 -5.210000 8.084000 # A 
80 1 1 0.000000 -14.735000 -7.248000 8.221000 # A 
81 1 1 0.000000 -12.713000 -6.643000 8.149000 # A 
82 1 1 0.000000 -13.389000 -6.145000 6.446000 # A 
83 1 1 0.000000 -11.859000 -7.010000 6.991000 # A 
84 1 1 0.000000 -12.295000 -5.748000 5.541000 # A 
85 1 1 0.000000 -12.907000 -4.055000 6.301000 # A 
86 1 1 0.000000 -11.816000 -5.822000 6.775000 # A 
87 1 1 0.000000 -11.497000 -7.268000 8.065000 # A 
88 1 1 0.000000 -9.511000 -7.254000 7.607000 # A 
89 1 1 0.000000 -11.327000 -8.080000 7.580000 # A 
90 1 1 0.000000 -9.401000 -8.970000 7.443000 # A 
91 1 1 0.000000 -8.522000 -9.028000 9.013000 # A 
92 1 1 0.000000 -10.197000 -8.136000 8.261000 # A 
93 1 1 0.000000 -8.876000 -7.163000 6.782000 # A 
94 1 1 0.000000 -6.914000 -7.200000 6.747000 # A 
95 1 1 0.000000 -8.777000 -7.488000 5.934000 # A 
96 1 1 0.000000 -8.099000 -5.684000 6.787000 # A 
97 1 1 0.000000 -6.500000 -6.092000 8.296000 # A 
98 1 1 0.000000 -8.559000 -5.496000 8.310000 # A 
99 1 1 0.000000 -9.453000 -6.097000 9.710000 # A 
100 1 1 0.000000 -9.207000 -8.048000 9.251000 # A 
101 1 1 0.000000 -8.781000 -6.234000 9.582000 # A 
102 1 1 0.000000 -8.887000 -8.208000 9.661000 # A 
103 1 1 0.000000 -8.159000 -8.834000 7.850000 # A 
104 1 1 0.000000 -6.756000 -7.894000 8.815000 # A 
105 1 1 0.000000 -6.432000 -8.754000 6.984000 # A 
106 1 1 0.000000 -7.933000 -7.864000 7.274000 # A 
107 1 1 0.000000 -7.580000 -7.091000 9.226000 # A 
108 1 1 0.000000 -7.460000 -5.578000 9.616000 # A 
109 1 1 0.000000 -7.981000 -7.414000 8.959000 # A 
110 1 1 0.000000 -7.140000 -5.536000 9.760000 # A 
111 1 1 0.000000 -9.113000 -5.123000 10.005000 # A 
112 1 1 0.000000 -9.036000 -4.507000 8.002000 # A 
113 1 1 0.000000 -8.538000 -5.173000 9.941000 # A 
114 1 1 0.000000 -7.444000 -4.543000 8.892000 # A 
115 1 1 0.000000 -8.492000 -3.839000 10.478000 # A 
116 1 1 0.000000 -7.969000 -1.737000 10.553000 # A 
117 1 1 0.000000 -9.513000 -2.712000 9.680000 # A 
118 1 1 0.000000 -7.443000 -2.700000 9.539000 # A 
119 1 1 0.000000 -6.649000 -2.766000 11.357000 # A 
120 1 1 0.000000 -6.841000 -4.588000 10.389000 # A 
121 1 1 0.000000 -6.504000 -6.486000 11.341000 # A 
122 1 1 0.000000 -5.549000 -5.310000 10.129000 # A 
123 1 1 0.000000 -7.223000 -5.772000 10.938000 # A 
124 1 1 0.000000 -8.394000 -7.507000 10.381000 # A 
125 1 1 0.000000 -9.577000 -6.885000 8.954000 # A 
126 1 1 0.000000 -10.519000 -6.839000 7.218000 # A 
127 1 1 0.000000 -9.040000 -5.817000 7.213000 # A 
128 1 1 0.000000 -9.751000 -7.047000 5.887000 # A 
129 1 1 0.000000 -9.117000 -5.951000 7.502000 # A 
130 1 1 0.000000 -7.415000 -6.902000 7.678000 # A 
131 1 1 0.000000 -7.619000 -8.247000 6.133000 # A 
132 1 1 0.000000 -5.459000 -8.029000 6.289000 # A 
133 1 1 0.000000 -6.033000 -6.255000 7.249000 # A 
134 1 1 0.000000 -6.222000 -7.848000 6.097000 # A 
135 1 1 0.000000 -5.495000 -8.817000 7.615000 # A 
136 1 1 0.000000 -5.687000 -6.896000 8.434000 # A 
137 1 1 0.000000 -5.236000 -8.827000 7.512000 # A 
138 1 1 0.000000 -3.534000 -9.166000 7.576000 # A 
139 1 1 0.000000 -3.160000 -7.341000 7.890000 # A 
140 1 1 0.000000 -4.903000 -6.761000 7.038000 # A 
141 1 1 0.000000 -3.702000 -5.357000 7.377000 # A 
142 1 1 0.000000 -4.586000 -6.685000 6.824000 # A 
143 1 1 0.000000 -5.816000 -7.909000 8.099000 # A 
144 1 1 0.000000 -4.242000 -7.875000 9.329000 # A 
145 1 1 0.000000 -4.495000 -9.620000 8.613000 # A 
146 1 1 0.000000 -5.507000 -10.912000 8.767000 # A 
147 1 1 0.000000 -7.562000 -10.003000 8.781000 # A 
148 1 1 0.000000 -5.744000 -10.953000 9.133000 # A 
149 1 1 0.000000 -3.694000 -10.325000 9.512000 # A 
150 1 1 0.000000 -4.225000 -10.940000 7.691000 # A 
151 1 1 0.000000 -5.725000 -10.057000 8.080000 # A 
152 1 1 0.000000 -4.839000 -11.534000 6.727000 # A 
153 1 1 0.000000 -3.142000 -11.661000 7.602000 # A 
154 1 1 0.000000 -4.972000 -11.826000 7.224000 # A 
155 1 1 0.000000 -5.108000 -13.295000 8.822000 # A 
156 1 1 0.000000 -6.735000 -13.598000 8.895000 # A 
157 1 1 0.000000 -7.393000 -12.057000 10.387000 # A 
158 1 1 0.000000 -6.225000 -10.544000 10.325000 # A 
159 1 1 0.000000 -6.912000 -12.078000 9.228000 # A 
160 1 1 0.000000 -8.573000 -11.383000 8.374000 # A 
161 1 1 0.000000 -7.773000 -10.618000 10.017000 # A 
162 1 1 0.000000 -8.088000 -9.296000 11.411000 # A 
163 1 1 0.000000 -8.610000 -10.349000 9.982000 # A 
164 1 1 0.000000 -9.844000 -9.349000 8.972000 # A 
165 1 1 0.000000 -11.247000 -10.250000 7.943000 # A 
166 1 1 0.000000 -13.403000 -10.132000 8.231000 # A 
167 1 1 0.000000 -14.068000 -11.532000 6.669000 # A 
168 1 1 0.000000 -12.393000 -10.602000 5.250000 # A 
169 1 1 0.000000 -13.429000 -8.753000 5.439000 # A 
170 1 1 0.000000 -14.150000 -10.484000 5.587000 # A 
171 1 1 0.000000 -12.802000 -9.002000 5.666000 # A 
172 1 1 0.000000 -13.898000 -7.778000 4.616000 # A 
173 1 1 0.000000 -15.094000 -8.412000 6.072000 # A 
174 1 1 0.000000 -14.278000 -8.456000 4.261000 # A 
175 1 1 0.000000 -14.696000 -7.637000 2.509000 # A 
176 1 1 0.000000 -14.421000 -6.483000 0.816000 # A 
177 1 1 0.000000 -15.934000 -5.131000 0.795000 # A 
178 1 1 0.000000 -15.038000 -5.280000 2.615000 # A 
179 1 1 0.000000 -13.317000 -5.663000 2.257000 # A 
180 1 1 0.000000 -12.628000 -6.986000 3.234000 # A 
181 1 1 0.000000 -14.227000 -8.506000 2.860000 # A 
182 1 1 0.000000 -12.283000 -8.623000 2.097000 # A 
183 1 1 0.000000 -12.053000 -10.423000 2.564000 # A 
184 1 1 0.000000 -12.080000 -12.435000 2.934000 # A 
185 1 1 0.000000 -10.780000 -11.458000 1.771000 # A 
186 1 1 0.000000 -9.940000 -9.989000 2.759000 # A 
187 1 1 0.000000 -9.837000 -7.934000 2.593000 # A 
188 1 1 0.000000 -9.710000 -9.986000 2.578000 # A 
189 1 1 0.000000 -9.115000 -10.596000 4.453000 # A 
190 1 1 0.000000 -7.535000 -10.708000 5.775000 # A 
191 1 1 0.000000 -6.761000 -10.682000 7.526000 # A 
192 1 1 0.000000 -7.072000 -11.026000 5.602000 # A 
193 1 1 0.000000 -5.969000 -12.532000 6.680000 # A 
194 1 1 0.000000 -6.655000 -10.657000 6.477000 # A 
195 1 1 0.000000 -7.204000 -11.375000 8.152000 # A 
196 1 1 0.000000 -7.760000 -12.414000 6.487000 # A 
197 1 1 0.000000 -5.977000 -12.004000 5.360000 # A 
198 1 1 0.000000 -7.734000 -12.501000 4.996000 # A 
199 1 1 0.000000 -6.326000 -11.803000 6.026000 # A 
200 1 1 0.000000 -6.088000 -9.981000 5.639000 # A 
201 1 1 0.000000 -6.742000 -9.640000 3.780000 # A 
202 1 1 0.000000 -8.725000 -9.957000 3.429000 # A 
203 1 1 0.000000 -6.736000 -9.654000 4.117000 # A 
204 1 1 0.000000 -6.230000 -8.364000 2.580000 # A 
205 1 1 0.000000 -7.302000 -6.493000 1.949000 # A 
206 1 1 0.000000 -7.101000 -6.753000 -0.023000 # A 
207 1 1 0.000000 -7.541000 -6.811000 2.208000 # A 
208 1 1 0.000000 -8.154000 -5.590000 3.830000 # A 
209 1 1 0.000000 -7.386000 -7.168000 5.360000 # A 
210 1 1 0.000000 -8.863000 -6.192000 6.014000 # A 
211 1 1 0.000000 -6.983000 -6.367000 5.543000 # A 
212 1 1 0.000000 -6.129000 -4.613000 5.065000 # A 
213 1 1 0.000000 -5.559000 -3.323000 6.354000 # A 
214 1 1 0.000000 -4.517000 -2.890000 7.921000 # A 
215 1 1 0.000000 -5.297000 -3.963000 9.491000 # A 
216 1 1 0.000000 -5.247000 -2.832000 8.100000 # A 
217 1 1 0.000000 -5.428000 -3.700000 9.811000 # A 
218 1 1 0.000000 -5.784000 -2.320000 8.387000 # A 
219 1 1 0.000000 -6.643000 -0.874000 9.508000 # A 
220 1 1 0.000000 -6.488000 -2.734000 8.938000 # A 
221 1 1 0.000000 -6.096000 -0.594000 9.092000 # A 
222 1 1 0.000000 -7.402000 -0.792000 10.807000 # A 
223 1 1 0.000000 -9.032000 -1.417000 11.501000 # A 
224 1 1 0.000000 -8.448000 -2.268000 9.848000 # A 
225 1 1 0.000000 -7.545000 -3.068000 10.840000 # A 
226 1 1 0.000000 -8.701000 -3.307000 9.572000 # A 
227 1 1 0.000000 -8.290000 -1.495000 9.023000 # A 
228 1 1 0.000000 -8.247000 -3.482000 8.718000 # A 
229 1 1 0.000000 -7.129000 -1.578000 8.758000 # A 
230 1 1 0.000000 -6.439000 -3.209000 8.025000 # A 
231 1 1 0.000000 -4.893000 -1.958000 7.763000 # A 
232 1 1 0.000000 -4.906000 -3.948000 8.174000 # A 
233 1 1 0.000000 -5.433000 -5.855000 8.311000 # A 
234 1 1 0.000000 -4.511000 -4.550000 9.838000 # A 
235 1 1 0.000000 -5.864000 -3.856000 8.627000 # A 
236 1 1 0.000000 -6.801000 -2.140000 7.883000 # A 
237 1 1 0.000000 -5.637000 -2.142000 6.269000 # A 
238 1 1 0.000000 -7.197000 -2.133000 7.491000 # A 
239 1 1 0.000000 -5.945000 -2.337000 5.893000 # A 
240 1 1 0.000000 -7.712000 -0.943000 6.380000 # A 
241 1 1 0.000000 -8.195000 -2.662000 7.585000 # A 
242 1 1 0.000000 -7.442000 -2.077000 5.771000 # A 
243 1 1 0.000000 -6.657000 -3.628000 4.960000 # A 
244 1 1 0.000000 -7.239000 -2.513000 6.444000 # A 
245 1 1 0.000000 -6.111000 -3.600000 5.086000 # A 
246 1 1 0.000000 -7.484000 -3.452000 6.585000 # A 
247 1 1 0.000000 -9.149000 -3.696000 5.879000 # A 
248 1 1 0.000000 -10.887000 -4.806000 6.210000 # A 
249 1 1 0.000000 -10.590000 -2.566000 6.753000 # A 
250 1 1 0.000000 -10.929000 -3.031000 4.883000 # A 
251 1 1 0.000000 -11.649000 -4.431000 3.493000 # A 
252 1 1 0.000000 -10.653000 -3.389000 4.624000 # A 
253 1 1 0.000000 -8.594000 -3.846000 4.989000 # A 
254 1 1 0.000000 -7.254000 -3.217000 3.858000 # A 
255 1 1 0.000000 -8.425000 -3.438000 5.185000 # A 
256 1 1 0.000000 -7.598000 -4.270000 3.730000 # A 
257 1 1 0.000000 -7.698000 -3.026000 5.354000 # A 
258 1 1 0.000000 -8.806000 -2.410000 4.335000 # A 
259 1 1 0.000000 -7.589000 -0.991000 5.080000 # A 
260 1 1 0.000000 -8.457000 -1.599000 3.484000 # A 
261 1 1 0.000000 -7.395000 -0.612000 5.122000 # A 
262 1 1 0.000000 -7.624000 -1.225000 3.565000 # A 
263 1 1 0.000000 -8.088000 0.179000 4.857000 # A 
264 1 1 0.000000 -8.942000 -1.034000 6.045000 # A 
265 1 1 0.000000 -9.179000 0.898000 5.474000 # A 
266 1 1 0.000000 -9.552000 -1.173000 5.326000 # A 
267 1 1 0.000000 -8.753000 -2.659000 6.343000 # A 
268 1 1 0.000000 -10.218000 -2.662000 7.755000 # A 
269 1 1 0.000000 -11.967000 -1.561000 7.982000 # A 
270 1 1 0.000000 -10.677000 -1.158000 6.390000 # A 
271 1 1 0.000000 -9.862000 -3.063000 6.265000 # A 
272 1 1 0.000000 -8.745000 -4.853000 5.444000 # A 
273 1 1 0.000000 -8.108000 -4.830000 7.379000 # A 
274 1 1 0.000000 -7.321000 -4.232000 5.522000 # A 
275 1 1 0.000000 -7.152000 -6.049000 6.710000 # A 
276 1 1 0.000000 -6.222000 -5.021000 7.944000 # A 
277 1 1 0.000000 -7.358000 -4.894000 6.424000 # A 
278 1 1 0.000000 -5.894000 -4.763000 7.688000 # A 
279 1 1 0.000000 -4.148000 -4.993000 8.435000 # A 
280 1 1 0.000000 -4.632000 -6.763000 8.628000 # A 
281 1 1 0.000000 -4.377000 -4.861000 8.266000 # A 
282 1 1 0.000000 -3.802000 -6.459000 8.026000 # A 
283 1 1 0.000000 -2.578000 -6.266000 6.283000 # A 
284 1 1 0.000000 -2.577000 -5.866000 4.237000 # A 
285 1 1 0.000000 -2.210000 -6.476000 6.056000 # A 
286 1 1 0.000000 -2.566000 -5.640000 4.125000 # A 
287 1 1 0.000000 -3.672000 -6.697000 5.147000 # A 
288 1 1 0.000000 -4.532000 -6.018000 3.328000 # A 
289 1 1 0.000000 -3.696000 -6.490000 4.718000 # A 
290 1 1 0.000000 -4.195000 -6.934000 2.721000 # A 
291 1 1 0.000000 -5.899000 -7.502000 3.188000 # A 
292 1 1 0.000000 -4.094000 -7.131000 2.451000 # A 
293 1 1 0.000000 -4.909000 -7.466000 3.924000 # A 
294 1 1 0.000000 -6.118000 -8.248000 4.834000 # A 
295 1 1 0.000000 -8.036000 -8.225000 4.917000 # A 
296 1 1 0.000000 -7.158000 -8.029000 3.344000 # A 
297 1 1 0.000000 -6.978000 -6.127000 3.367000 # A 
298 1 1 0.000000 -7.867000 -5.883000 5.079000 # A 
299 1 1 0.000000 -9.215000 -5.220000 3.573000 # A 
300 1 1 0.000000 -8.761000 -3.997000 2.156000 # A 
301 1 1 0.000000 -9.191000 -5.314000 3.564000 # A 
302 1 1 0.000000 -9.976000 -7.046000 3.283000 # A 
303 1 1 0.000000 -8.811000 -6.858000 1.688000 # A 
304 1 1 0.000000 -8.523000 -8.091000 3.322000 # A 
305 1 1 0.000000 -7.026000 -7.128000 4.313000 # A 
306 1 1 0.000000 -8.649000 -6.374000 3.309000 # A 
307 1 1 0.000000 -9.259000 -8.111000 4.001000 # A 
308 1 1 0.000000 -8.430000 -6.753000 2.795000 # A 
309 1 1 0.000000 -8.987000 -7.801000 4.446000 # A 
310 1 1 0.000000 -8.085000 -9.686000 4.526000 # A 
311 1 1 0.000000 -8.501000 -10.126000 6.640000 # A 
312 1 1 0.000000 -8.853000 -10.147000 8.617000 # A 
313 1 1 0.000000 -10.728000 -9.706000 9.695000 # A 
314 1 1 0.000000 -10.934000 -8.117000 9.255000 # A 
315 1 1 0.000000 -10.526000 -8.568000 11.135000 # A 
316 1 1 0.000000 -10.176000 -6.444000 11.171000 # A 
317 1 1 0.000000 -10.512000 -4.821000 10.703000 # A 
318 1 1 0.000000 -10.179000 -5.868000 9.027000 # A 
319 1 1 0.000000 -11.033000 -4.608000 10.123000 # A 
320 1 1 0.000000 -9.825000 -5.017000 8.411000 # A 
321 1 1 0.000000 -10.008000 -5.737000 6.260000 # A 
322 1 1 0.000000 -9.428000 -5.970000 4.340000 # A 
323 1 1 0.000000 -10.390000 -5.989000 6.163000 # A 
324 1 1 0.000000 -9.972000 -7.229000 4.522000 # A 
325 1 1 0.000000 -11.467000 -6.465000 3.356000 # A 
326 1 1 0.000000 -12.403000 -8.253000 3.577000 # A 
327 1 1 0.000000 -12.275000 -6.570000 2.345000 # A 
328 1 1 0.000000 -13.061000 -6.784000 4.386000 # A 
329 1 1 0.000000 -12.845000 -4.704000 4.204000 # A 
330 1 1 0.000000 -10.986000 -4.451000 4.289000 # A 
331 1 1 0.000000 -12.705000 -4.555000 5.137000 # A 
332 1 1 0.000000 -11.252000 -5.930000 4.286000 # A 
333 1 1 0.000000 -12.454000 -5.080000 3.018000 # A 
334 1 1 0.000000 -11.934000 -4.416000 1.391000 # A 
335 1 1 0.000000 -12.454000 -3.602000 3.337000 # A 
336 1 1 0.000000 -11.648000 -5.269000 2.364000 # A 
337 1 1 0.000000 -10.326000 -6.819000 1.578000 # A 
338 1 1 0.000000 -12.112000 -5.629000 1.667000 # A 
339 1 1 0.000000 -11.182000 -7.282000 1.788000 # A 
340 1 1 0.000000 -9.836000 -7.918000 1.433000 # A 
341 1 1 0.000000 -10.945000 -6.322000 2.170000 # A 
342 1 1 0.000000 -11.696000 -7.592000 3.058000 # A 
343 1 1 0.000000 -10.995000 -8.659000 4.636000 # A 
344 1 1 0.000000 -10.620000 -8.106000 6.294000 # A 
345 1 1 0.000000 -9.851000 -9.639000 6.322000 # A 
346 1 1 0.000000 -11.366000 -10.585000 5.508000 # A 
347 1 1 0.000000 -10.081000 -9.056000 5.839000 # A 
348 1 1 0.000000 -8.254000 -9.372000 5.478000 # A 
349 1 1 0.000000 -10.400000 -9.506000 5.258000 # A 
350 1 1 0.000000 -10.999000 -9.532000 7.008000 # A 
351 1 1 0.000000 -9.801000 -10.960000 6.320000 # A 
352 1 1 0.000000 -10.692000 -12.636000 5.617000 # A 
353 1 1 0.000000 -10.368000 -10.613000 5.622000 # A 
354 1 1 0.000000 -11.913000 -9.792000 6.363000 # A 
355 1 1 0.000000 -10.016000 -10.278000 7.202000 # A 
356 1 1 0.000000 -10.235000 -11.947000 6.253000 # A 
357 1 1 0.000000 -9.843000 -10.541000 7.566000 # A 
358 1 1 0.000000 -7.977000 -10.803000 7.577000 # A 
359 1 1 0.000000 -7.890000 -12.340000 8.267000 # A 
360 1 1 0.000000 -8.372000 -11.544000 6.422000 # A 
361 1 1 0.000000 -7.990000 -10.962000 4.644000 # A 
362 1 1 0.000000 -7.928000 -10.486000 2.956000 # A 
363 1 1 0.000000 -8.293000 -10.268000 0.938000 # A 
364 1 1 0.000000 -6.853000 -8.753000 1.446000 # A 
365 1 1 0.000000 -8.057000 -9.562000 -0.275000 # A 
366 1 1 0.000000 -10.020000 -8.950000 -0.949000 # A 
367 1 1 0.000000 -8.400000 -9.758000 -0.426000 # A 
368 1 1 0.000000 -6.711000 -10.784000 -0.354000 # A 
369 1 1 0.000000 -6.647000 -12.237000 -1.741000 # A 
370 1 1 0.000000 -6.684000 -11.615000 0.441000 # A 
371 1 1 0.000000 -6.196000 -13.218000 0.906000 # A 
372 1 1 0.000000 -6.847000 -11.476000 0.856000 # A 
373 1 1 0.000000 -8.760000 -11.530000 -0.039000 # A 
374 1 1 0.000000 -9.613000 -10.206000 -0.824000 # A 
375 1 1 0.000000 -8.017000 -9.044000 -1.376000 # A 
376 1 1 0.000000 -9.603000 -10.394000 -1.051000 # A 
377 1 1 0.000000 -10.020000 -9.934000 0.917000 # A 
378 1 1 0.000000 -10.683000 -10.054000 -1.020000 # A 
379 1 1 0.000000 -9.755000 -9.272000 0.561000 # A 
380 1 1 0.000000 -9.603000 -7.174000 0.726000 # A 
381 1 1 0.000000 -10.529000 -5.439000 1.272000 # A 
382 1 1 0.000000 -9.229000 -5.956000 2.352000 # A 
383 1 1 0.000000 -10.696000 -4.325000 2.350000 # A 
384 1 1 0.000000 -8.875000 -4.824000 2.744000 # A 
385 1 1 0.000000 -9.072000 -3.235000 1.656000 # A 
386 1 1 0.000000 -9.033000 -3.403000 3.678000 # A 
387 1 1 0.000000 -9.167000 -2.651000 5.312000 # A 
388 1 1 0.000000 -9.800000 -2.221000 3.869000 # A 
389 1 1 0.000000 -9.551000 -4.190000 4.254000 # A 
390 1 1 0.000000 -11.449000 -3.349000 3.738000 # A 
391 1 1 0.000000 -11.408000 -1.509000 3.164000 # A 
392 1 1 0.000000 -11.538000 -3.080000 3.785000 # A 
393 1 1 0.000000 -10.617000 -1.531000 4.985000 # A 
394 1 1 0.000000 -10.129000 -1.669000 2.913000 # A 
395 1 1 0.000000 -10.291000 -3.444000 3.568000 # A 
396 1 1 0.000000 -8.581000 -4.379000 3.937000 # A 
397 1 1 0.000000 -10.187000 -3.295000 3.350000 # A 
398 1 1 0.000000 -11.689000 -3.767000 2.317000 # A 
399 1 1 0.000000 -13.177000 -2.564000 3.004000 # A 
400 1 1 0.000000 -11.331000 -2.981000 2.219000 # A 
401 1 1 0.000000 -10.792000 -2.229000 4.105000 # A 
402 1 1 0.000000 -10.553000 -2.314000 2.263000 # A 
403 1 1 0.000000 -12.217000 -0.991000 2.746000 # A 
404 1 1 0.000000 -11.101000 -0.077000 4.234000 # A 
405 1 1 0.000000 -9.545000 -0.108000 3.029000 # A 
406 1 1 0.000000 -9.378000 -0.599000 1.201000 # A 
407 1 1 0.000000 -9.670000 0.443000 2.879000 # A 
408 1 1 0.000000 -10.767000 -1.312000 2.122000 # A 
409 1 1 0.000000 -10.345000 -0.671000 3.686000 # A 
410 1 1 0.000000 -9.832000 -1.149000 2.071000 # A 
411 1 1 0.000000 -10.463000 -0.886000 3.700000 # A 
412 1 1 0.000000 -8.835000 -0.863000 2.593000 # A 
413 1 1 0.000000 -7.748000 -0.124000 1.312000 # A 
414 1 1 0.000000 -8.628000 -1.315000 2.399000 # A 
415 1 1 0.000000 -10.383000 -1.958000 1.269000 # A 
416 1 1 0.000000 -11.044000 -3.512000 0.057000 # A 
417 1 1 0.000000 -9.845000 -4.740000 0.723000 # A 
418 1 1 0.000000 -9.887000 -3.551000 2.335000 # A 
419 1 1 0.000000 -9.883000 -4.696000 0.836000 # A 
420 1 1 0.000000 -8.811000 -6.386000 0.694000 # A 
421 1 1 0.000000 -10.365000 -7.910000 0.463000 # A 
422 1 1 0.000000 -9.004000 -6.615000 -0.176000 # A 
423 1 1 0.000000 -10.331000 -8.119000 0.195000 # A 
424 1 1 0.000000 -8.770000 -7.874000 1.270000 # A 
425 1 1 0.000000 -10.693000 -8.343000 1.758000 # A 
426 1 1 0.000000 -8.800000 -9.005000 2.773000 # A 
427 1 1 0.000000 -9.396000 -10.956000 2.130000 # A 
428 1 1 0.000000 -10.247000 -11.483000 4.036000 # A 
429 1 1 0.000000 -9.216000 -11.060000 2.237000 # A 
430 1 1 0.000000 -10.640000 -11.257000 3.556000 # A 
431 1 1 0.000000 -10.649000 -12.796000 2.450000 # A 
432 1 1 0.000000 -9.367000 -11.868000 1.025000 # A 
433 1 1 0.000000 -8.766000 -12.929000 -0.427000 # A 
434 1 1 0.000000 -8.072000 -13.151000 1.219000 # A 
435 1 1 0.000000 -7.644000 -12.649000 -0.718000 # A 
436 1 1 0.000000 -8.889000 -12.612000 -2.146000 # A 
437 1 1 0.000000 -8.675000 -10.624000 -2.430000 # A 
438 1 1 0.000000 -8.468000 -11.272000 -4.322000 # A 
439 1 1 0.000000 -7.444000 -9.784000 -4.320000 # A 
440 1 1 0.000000 -7.886000 -11.493000 -5.467000 # A 
441 1 1 0.000000 -7.979000 -9.812000 -6.009000 # A 
442 1 1 0.000000 -9.350000 -8.305000 -6.987000 # A 
443 1 1 0.000000 -7.536000 -7.278000 -7.618000 # A 
444 1 1 0.000000 -8.681000 -8.597000 -8.856000 # A 
445 1 1 0.000000 -7.460000 -7.075000 -9.267000 # A 
446 1 1 0.000000 -7.529000 -8.659000 -8.112000 # A 
447 1 1 0.000000 -8.610000 -7.520000 -8.588000 # A 
448 1 1 0.000000 -7.426000 -6.109000 -8.094000 # A 
449 1 1 0.000000 -5.821000 -5.981000 -9.202000 # A 
450 1 1 0.000000 -7.588000 -5.675000 -7.947000 # A 
451 1 1 0.000000 -6.685000 -6.045000 -6.455000 # A 
452 1 1 0.000000 -4.715000 -5.643000 -6.811000 # A 
453 1 1 0.000000 -4.380000 -7.685000 -7.418000 # A 
454 1 1 0.000000 -4.740000 -5.841000 -6.697000 # A 
455 1 1 0.000000 -5.694000 -5.878000 -4.646000 # A 
456 1 1 0.000000 -6.466000 -7.105000 -6.160000 # A 
457 1 1 0.000000 -7.503000 -5.231000 -6.550000 # A 
458 1 1 0.000000 -6.696000 -6.933000 -5.809000 # A 
459 1 1 0.000000 -8.142000 -5.541000 -5.857000 # A 
460 1 1 0.000000 -7.150000 -6.388000 -4.538000 # A 
461 1 1 0.000000 -7.733000 -8.220000 -5.407000 # A 
462 1 1 0.000000 -7.313000 -6.411000 -4.415000 # A 
463 1 1 0.000000 -7.567000 -7.617000 -2.860000 # A 
464 1 1 0.000000 -6.217000 -8.257000 -1.495000 # A 
465 1 1 0.000000 -4.866000 -7.126000 -1.410000 # A 
466 1 1 0.000000 -5.851000 -5.602000 -2.238000 # A 
467 1 1 0.000000 -6.817000 -6.906000 -3.517000 # A 
468 1 1 0.000000 -7.909000 -6.889000 -1.989000 # A 
469 1 1 0.000000 -6.316000 -8.176000 -2.471000 # A 
470 1 1 0.000000 -7.840000 -6.886000 -1.749000 # A 
471 1 1 0.000000 -6.499000 -7.788000 -2.609000 # A 
472 1 1 0.000000 -5.736000 -9.479000 -2.972000 # A 
473 1 1 0.000000 -4.287000 -10.489000 -4.134000 # A 
474 1 1 0.000000 -5.859000 -9.585000 -2.992000 # A 
475 1 1 0.000000 -4.033000 -10.058000 -4.007000 # A 
476 1 1 0.000000 -3.149000 -10.057000 -5.798000 # A 
477 1 1 0.000000 -4.655000 -8.981000 -5.462000 # A 
478 1 1 0.000000 -3.000000 -9.881000 -5.007000 # A 
479 1 1 0.000000 -4.793000 -8.785000 -5.096000 # A 
480 1 1 0.000000 -6.378000 -8.998000 -6.253000 # A 
481 1 1 0.000000 -5.412000 -7.861000 -7.672000 # A 
482 1 1 0.000000 -6.524000 -6.624000 -8.777000 # A 
483 1 1 0.000000 -4.998000 -5.500000 -8.153000 # A 
484 1 1 0.000000 -6.891000 -5.337000 -8.693000 # A 
485 1 1 0.000000 -4.807000 -5.105000 -8.170000 # A 
486 1 1 0.000000 -6.608000 -4.777000 -8.537000 # A 
487 1 1 0.000000 -7.659000 -4.407000 -7.226000 # A 
488 1 1 0.000000 -8.668000 -3.736000 -5.774000 # A 
489 1 1 0.000000 -6.964000 -3.719000 -5.390000 # A 
490 1 1 0.000000 -8.644000 -4.160000 -6.436000 # A 
491 1 1 0.000000 -9.534000 -2.696000 -7.179000 # A 
492 1 1 0.000000 -9.269000 -4.564000 -6.744000 # A 
493 1 1 0.000000 -7.487000 -4.631000 -5.802000 # A 
494 1 1 0.000000 -6.515000 -3.300000 -7.140000 # A 
495 1 1 0.000000 -7.353000 -4.504000 -5.811000 # A 
496 1 1 0.000000 -7.604000 -3.201000 -7.178000 # A 
497 1 1 0.000000 -6.070000 -2.364000 -8.016000 # A 
498 1 1 0.000000 -7.572000 -3.980000 -8.215000 # A 
499 1 1 0.000000 -5.548000 -4.104000 -8.890000 # A 
500 1 1 0.000000 -4.864000 -3.659000 -7.300000 # A 
501 1 1 0.000000 -5.514000 -4.572000 -8.964000 # A 
502 1 1 0.000000 -4.512000 -4.090000 -7.038000 # A 
503 1 1 0.000000 -5.396000 -5.034000 -5.486000 # A 
504 1 1 0.000000 -3.545000 -5.535000 -4.287000 # A 
505 1 1 0.000000 -4.169000 -7.550000 -4.868000 # A 
506 1 1 0.000000 -5.536000 -8.421000 -3.995000 # A 
507 1 1 0.000000 -6.422000 -9.620000 -5.018000 # A 
508 1 1 0.000000 -5.405000 -8.519000 -3.990000 # A 
509 1 1 0.000000 -4.930000 -8.745000 -2.235000 # A 
510 1 1 0.000000 -6.582000 -9.327000 -1.351000 # A 
511 1 1 0.000000 -5.293000 -8.572000 -2.149000 # A 
512 1 1 0.000000 -7.245000 -8.012000 -1.622000 # A 
513 1 1 0.000000 -8.802000 -8.989000 -2.704000 # A 
514 1 1 0.000000 -9.957000 -10.556000 -2.350000 # A 
515 1 1 0.000000 -9.104000 -9.109000 -3.441000 # A 
516 1 1 0.000000 -10.830000 -8.260000 -3.743000 # A 
517 1 1 0.000000 -9.470000 -10.090000 -4.027000 # A 
518 1 1 0.000000 -9.469000 -8.331000 -5.085000 # A 
519 1 1 0.000000 -7.952000 -7.403000 -6.293000 # A 
520 1 1 0.000000 -7.070000 -5.808000 -5.567000 # A 
521 1 1 0.000000 -6.048000 -6.429000 -7.232000 # A 
522 1 1 0.000000 -5.745000 -7.004000 -5.277000 # A 
523 1 1 0.000000 -4.141000 -7.097000 -6.607000 # A 
524 1 1 0.000000 -5.757000 -6.125000 -5.887000 # A 
525 1 1 0.000000 -5.573000 -7.907000 -6.423000 # A 
526 1 1 0.000000 -5.674000 -5.913000 -6.000000 # A 
527 1 1 0.000000 -4.941000 -6.810000 -7.586000 # A 
528 1 1 0.000000 -6.657000 -7.505000 -8.170000 # A 
529 1 1 0.000000 -7.268000 -8.470000 -9.976000 # A 
530 1 1 0.000000 -8.697000 -9.589000 -10.467000 # A 
531 1 1 0.000000 -7.326000 -10.501000 -11.041000 # A 
532 1 1 0.000000 -6.522000 -12.320000 -10.469000 # A 
533 1 1 0.000000 -8.609000 -12.031000 -10.222000 # A 
534 1 1 0.000000 -8.844000 -12.991000 -8.498000 # A 
535 1 1 0.000000 -8.558000 -10.805000 -8.432000 # A 
536 1 1 0.000000 -8.691000 -12.643000 -7.476000 # A 
537 1 1 0.000000 -9.632000 -12.088000 -6.282000 # A 
538 1 1 0.000000 -10.226000 -10.769000 -4.831000 # A 
539 1 1 0.000000 -11.561000 -11.000000 -6.167000 # A 
540 1 1 0.000000 -9.850000 -10.013000 -5.965000 # A 
541 1 1 0.000000 -10.888000 -9.992000 -4.361000 # A 
542 1 1 0.000000 -10.383000 -8.140000 -5.494000 # A 
543 1 1 0.000000 -11.162000 -9.682000 -4.514000 # A 
544 1 1 0.000000 -12.199000 -9.928000 -3.099000 # A 
545 1 1 0.000000 -12.631000 -7.949000 -2.345000 # A 
546 1 1 0.000000 -14.422000 -8.366000 -2.557000 # A 
547 1 1 0.000000 -13.571000 -8.546000 -4.460000 # A 
548 1 1 0.000000 -11.995000 -7.909000 -3.671000 # A 
549 1 1 0.000000 -11.698000 -7.215000 -5.300000 # A 
550 1 1 0.000000 -11.381000 -8.637000 -6.778000 # A 
551 1 1 0.000000 -9.914000 -8.751000 -8.064000 # A 
552 1 1 0.000000 -10.306000 -7.145000 -8.459000 # A 
553 1 1 0.000000 -10.315000 -9.076000 -8.540000 # A 
554 1 1 0.000000 -9.983000 -7.107000 -8.552000 # A 
555 1 1 0.000000 -8.968000 -6.022000 -10.027000 # A 
556 1 1 0.000000 -9.544000 -4.538000 -11.056000 # A 
557 1 1 0.000000 -10.490000 -6.270000 -10.551000 # A 
558 1 1 0.000000 -9.297000 -5.996000 -8.823000 # A 
559 1 1 0.000000 -8.733000 -4.156000 -8.133000 # A 
560 1 1 0.000000 -10.690000 -3.880000 -8.108000 # A 
561 1 1 0.000000 -10.082000 -5.327000 -6.669000 # A 
562 1 1 0.000000 -11.361000 -4.578000 -7.300000 # A 
563 1 1 0.000000 -10.778000 -5.017000 -9.199000 # A 
564 1 1 0.000000 -10.666000 -7.033000 -9.884000 # A 
565 1 1 0.000000 -11.291000 -6.576000 -11.689000 # A 
566 1 1 0.000000 -11.259000 -6.764000 -9.723000 # A 
567 1 1 0.000000 -10.126000 -5.585000 -8.285000 # A 
568 1 1 0.000000 -8.696000 -4.634000 -9.481000 # A 
569 1 1 0.000000 -6.753000 -3.968000 -10.302000 # A 
570 1 1 0.000000 -8.548000 -4.076000 -10.933000 # A 
571 1 1 0.000000 -7.053000 -4.678000 -12.018000 # A 